<?xml version="1.0" encoding="UTF-8"?>

<!-- generated on 05/01/20 11:04:24 by Eclipse SUMO Version 1.1.0
<configuration xmlns:xsi="http://www.w3.org/2001/XMLSchema-instance" xsi:noNamespaceSchemaLocation="http://sumo.dlr.de/xsd/sumoConfiguration.xsd">

    <input>
        <net-file value="./3X3grid/3X3grid.net.xml"/>
        <route-files value="./3X3grid/3X3grid.rou.xml"/>
    </input>

    <output>
        <netstate-dump value="./3X3grid/output/3X3grid_netstate.sumo.tr"/>
        <queue-output value="./3X3grid/output/3X3grid_queues.xml"/>
        <tripinfo-output value="./3X3grid/output//3X3grid_tripinfo.xml"/>
        <vehroute-output value="./3X3grid/output/3X3grid_vehroutes.xml"/>
    </output>

    <time>
        <begin value="0"/>
        <end value="3600"/>
    </time>

    <processing>
        <route-steps value="-1"/>
        <time-to-teleport value="-1"/>
    </processing>

</configuration>
-->

<tripinfos xmlns:xsi="http://www.w3.org/2001/XMLSchema-instance" xsi:noNamespaceSchemaLocation="http://sumo.dlr.de/xsd/tripinfo_file.xsd">
    <tripinfo id="0" depart="0.00" departLane="B2A2_0" departPos="872.48" departSpeed="14.72" departDelay="0.00" arrival="108.00" arrivalLane="A2left2_0" arrivalPos="989.60" arrivalSpeed="14.05" duration="108.00" routeLength="1117.12" waitingTime="22.00" waitingCount="1" stopTime="0.00" timeLoss="31.58" rerouteNo="0" devices="vehroute_0 tripinfo_0" vType="DEFAULT_VEHTYPE" speedFactor="1.06" vaporized=""/>
    <tripinfo id="29" depart="29.00" departLane="right0C0_1" departPos="867.13" departSpeed="12.94" departDelay="0.00" arrival="123.00" arrivalLane="C0bottom2_0" arrivalPos="989.60" arrivalSpeed="12.19" duration="94.00" routeLength="1131.43" waitingTime="0.00" waitingCount="0" stopTime="0.00" timeLoss="5.50" rerouteNo="0" devices="vehroute_29 tripinfo_29" vType="DEFAULT_VEHTYPE" speedFactor="0.93" vaporized=""/>
    <tripinfo id="24" depart="24.00" departLane="right0C0_1" departPos="753.65" departSpeed="11.47" departDelay="0.00" arrival="141.00" arrivalLane="C0bottom2_0" arrivalPos="989.60" arrivalSpeed="10.31" duration="117.00" routeLength="1244.91" waitingTime="0.00" waitingCount="0" stopTime="0.00" timeLoss="7.53" rerouteNo="0" devices="vehroute_24 tripinfo_24" vType="DEFAULT_VEHTYPE" speedFactor="0.83" vaporized=""/>
    <tripinfo id="14" depart="14.00" departLane="top1B2_1" departPos="367.75" departSpeed="13.77" departDelay="0.00" arrival="145.00" arrivalLane="B2B1_0" arrivalPos="979.20" arrivalSpeed="12.93" duration="131.00" routeLength="1621.85" waitingTime="1.00" waitingCount="1" stopTime="0.00" timeLoss="12.33" rerouteNo="0" devices="vehroute_14 tripinfo_14" vType="DEFAULT_VEHTYPE" speedFactor="0.99" vaporized=""/>
    <tripinfo id="54" depart="54.00" departLane="top1B2_1" departPos="633.98" departSpeed="13.93" departDelay="0.00" arrival="161.00" arrivalLane="B2C2_0" arrivalPos="979.20" arrivalSpeed="12.90" duration="107.00" routeLength="1354.18" waitingTime="0.00" waitingCount="0" stopTime="0.00" timeLoss="8.67" rerouteNo="0" devices="vehroute_54 tripinfo_54" vType="DEFAULT_VEHTYPE" speedFactor="1.00" vaporized=""/>
    <tripinfo id="73" depart="73.00" departLane="bottom0A0_1" departPos="807.81" departSpeed="14.66" departDelay="0.00" arrival="162.00" arrivalLane="A0bottom0_0" arrivalPos="989.60" arrivalSpeed="13.51" duration="89.00" routeLength="1176.07" waitingTime="0.00" waitingCount="0" stopTime="0.00" timeLoss="8.12" rerouteNo="0" devices="vehroute_73 tripinfo_73" vType="DEFAULT_VEHTYPE" speedFactor="1.06" vaporized=""/>
    <tripinfo id="53" depart="53.00" departLane="bottom2C0_1" departPos="453.52" departSpeed="15.22" departDelay="0.00" arrival="163.00" arrivalLane="C0bottom2_0" arrivalPos="989.60" arrivalSpeed="14.03" duration="110.00" routeLength="1530.36" waitingTime="0.00" waitingCount="0" stopTime="0.00" timeLoss="8.75" rerouteNo="0" devices="vehroute_53 tripinfo_53" vType="DEFAULT_VEHTYPE" speedFactor="1.10" vaporized=""/>
    <tripinfo id="16" depart="16.00" departLane="top1B2_1" departPos="335.33" departSpeed="12.20" departDelay="0.00" arrival="164.00" arrivalLane="B2top1_0" arrivalPos="989.60" arrivalSpeed="12.16" duration="148.00" routeLength="1648.55" waitingTime="0.00" waitingCount="0" stopTime="0.00" timeLoss="10.68" rerouteNo="0" devices="vehroute_16 tripinfo_16" vType="DEFAULT_VEHTYPE" speedFactor="0.88" vaporized=""/>
    <tripinfo id="13" depart="13.00" departLane="bottom1B0_0" departPos="961.38" departSpeed="15.60" departDelay="0.00" arrival="170.00" arrivalLane="C0right0_0" arrivalPos="989.60" arrivalSpeed="14.80" duration="157.00" routeLength="2026.85" waitingTime="13.00" waitingCount="1" stopTime="0.00" timeLoss="26.19" rerouteNo="0" devices="vehroute_13 tripinfo_13" vType="DEFAULT_VEHTYPE" speedFactor="1.12" vaporized=""/>
    <tripinfo id="2" depart="2.00" departLane="right1C1_1" departPos="43.16" departSpeed="14.03" departDelay="0.00" arrival="176.00" arrivalLane="C1right1_0" arrivalPos="989.60" arrivalSpeed="13.03" duration="174.00" routeLength="1940.72" waitingTime="23.00" waitingCount="1" stopTime="0.00" timeLoss="34.51" rerouteNo="0" devices="vehroute_2 tripinfo_2" vType="DEFAULT_VEHTYPE" speedFactor="1.01" vaporized=""/>
    <tripinfo id="17" depart="17.00" departLane="C0B0_1" departPos="325.91" departSpeed="13.08" departDelay="0.00" arrival="182.00" arrivalLane="B0bottom1_0" arrivalPos="989.60" arrivalSpeed="12.54" duration="165.00" routeLength="1662.25" waitingTime="26.00" waitingCount="1" stopTime="0.00" timeLoss="37.09" rerouteNo="0" devices="vehroute_17 tripinfo_17" vType="DEFAULT_VEHTYPE" speedFactor="0.94" vaporized=""/>
    <tripinfo id="1" depart="1.00" departLane="B2C2_0" departPos="44.53" departSpeed="13.03" departDelay="0.00" arrival="183.00" arrivalLane="C2right2_0" arrivalPos="989.60" arrivalSpeed="12.24" duration="182.00" routeLength="1945.07" waitingTime="19.00" waitingCount="1" stopTime="0.00" timeLoss="32.15" rerouteNo="0" devices="vehroute_1 tripinfo_1" vType="DEFAULT_VEHTYPE" speedFactor="0.94" vaporized=""/>
    <tripinfo id="7" depart="7.00" departLane="B2A2_1" departPos="29.20" departSpeed="12.31" departDelay="0.00" arrival="188.00" arrivalLane="A2left2_0" arrivalPos="989.60" arrivalSpeed="12.05" duration="181.00" routeLength="1960.40" waitingTime="7.00" waitingCount="1" stopTime="0.00" timeLoss="21.55" rerouteNo="0" devices="vehroute_7 tripinfo_7" vType="DEFAULT_VEHTYPE" speedFactor="0.89" vaporized=""/>
    <tripinfo id="49" depart="49.00" departLane="left2A2_1" departPos="436.91" departSpeed="11.81" departDelay="0.00" arrival="194.00" arrivalLane="A2top0_0" arrivalPos="989.60" arrivalSpeed="11.52" duration="145.00" routeLength="1561.65" waitingTime="0.00" waitingCount="0" stopTime="0.00" timeLoss="11.23" rerouteNo="0" devices="vehroute_49 tripinfo_49" vType="DEFAULT_VEHTYPE" speedFactor="0.85" vaporized=""/>
    <tripinfo id="55" depart="55.00" departLane="right0C0_1" departPos="123.02" departSpeed="13.83" departDelay="0.00" arrival="199.00" arrivalLane="C0bottom2_0" arrivalPos="989.60" arrivalSpeed="13.09" duration="144.00" routeLength="1875.54" waitingTime="0.00" waitingCount="0" stopTime="0.00" timeLoss="7.12" rerouteNo="0" devices="vehroute_55 tripinfo_55" vType="DEFAULT_VEHTYPE" speedFactor="1.00" vaporized=""/>
    <tripinfo id="70" depart="70.00" departLane="right2C2_1" departPos="312.82" departSpeed="14.21" departDelay="0.00" arrival="201.00" arrivalLane="C2C1_0" arrivalPos="979.20" arrivalSpeed="4.70" duration="131.00" routeLength="1675.34" waitingTime="1.00" waitingCount="1" stopTime="0.00" timeLoss="12.56" rerouteNo="0" devices="vehroute_70 tripinfo_70" vType="DEFAULT_VEHTYPE" speedFactor="1.02" vaporized=""/>
    <tripinfo id="45" depart="45.00" departLane="right0C0_0" departPos="926.65" departSpeed="15.11" departDelay="0.00" arrival="204.00" arrivalLane="C1right1_0" arrivalPos="989.60" arrivalSpeed="14.49" duration="159.00" routeLength="2049.81" waitingTime="9.00" waitingCount="1" stopTime="0.00" timeLoss="22.13" rerouteNo="0" devices="vehroute_45 tripinfo_45" vType="DEFAULT_VEHTYPE" speedFactor="1.09" vaporized=""/>
    <tripinfo id="126" depart="126.00" departLane="top0A2_1" departPos="839.17" departSpeed="14.34" departDelay="0.00" arrival="214.00" arrivalLane="A2top0_0" arrivalPos="989.60" arrivalSpeed="13.71" duration="88.00" routeLength="1144.71" waitingTime="0.00" waitingCount="0" stopTime="0.00" timeLoss="7.12" rerouteNo="0" devices="vehroute_126 tripinfo_126" vType="DEFAULT_VEHTYPE" speedFactor="1.03" vaporized=""/>
    <tripinfo id="19" depart="19.00" departLane="B1B0_0" departPos="7.18" departSpeed="16.09" departDelay="0.00" arrival="234.00" arrivalLane="A0bottom0_0" arrivalPos="989.60" arrivalSpeed="15.48" duration="215.00" routeLength="2969.21" waitingTime="12.00" waitingCount="1" stopTime="0.00" timeLoss="29.04" rerouteNo="0" devices="vehroute_19 tripinfo_19" vType="DEFAULT_VEHTYPE" speedFactor="1.16" vaporized=""/>
    <tripinfo id="77" depart="77.00" departLane="bottom1B0_1" departPos="77.95" departSpeed="13.64" departDelay="0.00" arrival="235.00" arrivalLane="B0A0_0" arrivalPos="979.20" arrivalSpeed="6.21" duration="158.00" routeLength="1910.21" waitingTime="3.00" waitingCount="1" stopTime="0.00" timeLoss="16.94" rerouteNo="0" devices="vehroute_77 tripinfo_77" vType="DEFAULT_VEHTYPE" speedFactor="0.98" vaporized=""/>
    <tripinfo id="99" depart="99.00" departLane="right2C2_0" departPos="331.38" departSpeed="15.24" departDelay="0.00" arrival="236.00" arrivalLane="C2top2_0" arrivalPos="989.60" arrivalSpeed="15.14" duration="137.00" routeLength="1656.85" waitingTime="17.00" waitingCount="1" stopTime="0.00" timeLoss="27.42" rerouteNo="0" devices="vehroute_99 tripinfo_99" vType="DEFAULT_VEHTYPE" speedFactor="1.10" vaporized=""/>
    <tripinfo id="122" depart="122.00" departLane="bottom2C0_0" departPos="449.84" departSpeed="14.33" departDelay="0.00" arrival="237.00" arrivalLane="C0right0_0" arrivalPos="989.60" arrivalSpeed="14.21" duration="115.00" routeLength="1538.39" waitingTime="0.00" waitingCount="0" stopTime="0.00" timeLoss="6.75" rerouteNo="0" devices="vehroute_122 tripinfo_122" vType="DEFAULT_VEHTYPE" speedFactor="1.03" vaporized=""/>
    <tripinfo id="105" depart="105.00" departLane="left2A2_1" departPos="529.23" departSpeed="14.90" departDelay="0.00" arrival="240.00" arrivalLane="A2top0_0" arrivalPos="989.60" arrivalSpeed="14.65" duration="135.00" routeLength="1469.33" waitingTime="24.00" waitingCount="1" stopTime="0.00" timeLoss="35.54" rerouteNo="0" devices="vehroute_105 tripinfo_105" vType="DEFAULT_VEHTYPE" speedFactor="1.07" vaporized=""/>
    <tripinfo id="40" depart="40.00" departLane="top1B2_0" departPos="373.69" departSpeed="14.31" departDelay="0.00" arrival="241.00" arrivalLane="A2left2_0" arrivalPos="989.60" arrivalSpeed="13.29" duration="201.00" routeLength="2614.54" waitingTime="0.00" waitingCount="0" stopTime="0.00" timeLoss="16.70" rerouteNo="0" devices="vehroute_40 tripinfo_40" vType="DEFAULT_VEHTYPE" speedFactor="1.03" vaporized=""/>
    <tripinfo id="82" depart="82.00" departLane="left1A1_1" departPos="387.69" departSpeed="14.12" departDelay="0.00" arrival="242.00" arrivalLane="A1left1_0" arrivalPos="989.60" arrivalSpeed="13.91" duration="160.00" routeLength="1596.19" waitingTime="36.00" waitingCount="1" stopTime="0.00" timeLoss="45.59" rerouteNo="0" devices="vehroute_82 tripinfo_82" vType="DEFAULT_VEHTYPE" speedFactor="1.02" vaporized=""/>
    <tripinfo id="63" depart="63.00" departLane="B1B2_0" departPos="771.96" departSpeed="13.71" departDelay="0.00" arrival="244.00" arrivalLane="C2top2_0" arrivalPos="989.60" arrivalSpeed="13.35" duration="181.00" routeLength="2204.43" waitingTime="4.00" waitingCount="1" stopTime="0.00" timeLoss="19.12" rerouteNo="0" devices="vehroute_63 tripinfo_63" vType="DEFAULT_VEHTYPE" speedFactor="0.99" vaporized=""/>
    <tripinfo id="85" depart="85.00" departLane="B0A0_1" departPos="319.88" departSpeed="13.56" departDelay="0.00" arrival="246.00" arrivalLane="A0left0_0" arrivalPos="989.60" arrivalSpeed="12.41" duration="161.00" routeLength="1669.72" waitingTime="27.00" waitingCount="1" stopTime="0.00" timeLoss="37.17" rerouteNo="0" devices="vehroute_85 tripinfo_85" vType="DEFAULT_VEHTYPE" speedFactor="0.98" vaporized=""/>
    <tripinfo id="22" depart="22.00" departLane="bottom1B0_0" departPos="353.32" departSpeed="13.54" departDelay="0.00" arrival="246.00" arrivalLane="C0right0_0" arrivalPos="989.60" arrivalSpeed="12.85" duration="224.00" routeLength="2634.91" waitingTime="11.00" waitingCount="1" stopTime="0.00" timeLoss="28.54" rerouteNo="0" devices="vehroute_22 tripinfo_22" vType="DEFAULT_VEHTYPE" speedFactor="0.98" vaporized=""/>
    <tripinfo id="3" depart="3.00" departLane="left2A2_1" departPos="737.37" departSpeed="15.04" departDelay="0.00" arrival="247.00" arrivalLane="C2top2_0" arrivalPos="989.60" arrivalSpeed="14.81" duration="244.00" routeLength="3261.19" waitingTime="10.00" waitingCount="1" stopTime="0.00" timeLoss="25.88" rerouteNo="0" devices="vehroute_3 tripinfo_3" vType="DEFAULT_VEHTYPE" speedFactor="1.08" vaporized=""/>
    <tripinfo id="4" depart="4.00" departLane="right2C2_0" departPos="560.39" departSpeed="14.31" departDelay="0.00" arrival="257.00" arrivalLane="A2top0_0" arrivalPos="989.60" arrivalSpeed="13.36" duration="253.00" routeLength="3427.84" waitingTime="0.00" waitingCount="0" stopTime="0.00" timeLoss="12.73" rerouteNo="0" devices="vehroute_4 tripinfo_4" vType="DEFAULT_VEHTYPE" speedFactor="1.03" vaporized=""/>
    <tripinfo id="28" depart="28.00" departLane="right0C0_0" departPos="482.70" departSpeed="15.72" departDelay="0.00" arrival="262.00" arrivalLane="A0left0_0" arrivalPos="989.60" arrivalSpeed="15.63" duration="234.00" routeLength="3517.30" waitingTime="0.00" waitingCount="0" stopTime="0.00" timeLoss="9.51" rerouteNo="0" devices="vehroute_28 tripinfo_28" vType="DEFAULT_VEHTYPE" speedFactor="1.13" vaporized=""/>
    <tripinfo id="57" depart="57.00" departLane="right1C1_0" departPos="651.92" departSpeed="15.87" departDelay="0.00" arrival="266.00" arrivalLane="C2right2_0" arrivalPos="989.60" arrivalSpeed="15.52" duration="209.00" routeLength="2324.54" waitingTime="45.00" waitingCount="2" stopTime="0.00" timeLoss="61.52" rerouteNo="0" devices="vehroute_57 tripinfo_57" vType="DEFAULT_VEHTYPE" speedFactor="1.14" vaporized=""/>
    <tripinfo id="142" depart="142.00" departLane="right2C2_0" departPos="459.71" departSpeed="13.01" departDelay="0.00" arrival="269.00" arrivalLane="C2top2_0" arrivalPos="989.60" arrivalSpeed="12.61" duration="127.00" routeLength="1528.52" waitingTime="0.00" waitingCount="0" stopTime="0.00" timeLoss="8.13" rerouteNo="0" devices="vehroute_142 tripinfo_142" vType="DEFAULT_VEHTYPE" speedFactor="0.94" vaporized=""/>
    <tripinfo id="38" depart="38.00" departLane="left1A1_1" departPos="597.76" departSpeed="15.31" departDelay="0.00" arrival="270.00" arrivalLane="A2top0_0" arrivalPos="989.60" arrivalSpeed="14.49" duration="232.00" routeLength="2400.80" waitingTime="56.00" waitingCount="2" stopTime="0.00" timeLoss="74.09" rerouteNo="0" devices="vehroute_38 tripinfo_38" vType="DEFAULT_VEHTYPE" speedFactor="1.10" vaporized=""/>
    <tripinfo id="173" depart="173.00" departLane="bottom0A0_1" departPos="717.22" departSpeed="15.86" departDelay="0.00" arrival="275.00" arrivalLane="A0left0_0" arrivalPos="989.60" arrivalSpeed="14.63" duration="102.00" routeLength="1281.34" waitingTime="5.00" waitingCount="2" stopTime="0.00" timeLoss="19.89" rerouteNo="0" devices="vehroute_173 tripinfo_173" vType="DEFAULT_VEHTYPE" speedFactor="1.14" vaporized=""/>
    <tripinfo id="25" depart="25.00" departLane="left0A0_0" departPos="425.29" departSpeed="12.12" departDelay="0.00" arrival="277.00" arrivalLane="B0bottom1_0" arrivalPos="989.60" arrivalSpeed="11.56" duration="252.00" routeLength="2562.94" waitingTime="21.00" waitingCount="1" stopTime="0.00" timeLoss="39.55" rerouteNo="0" devices="vehroute_25 tripinfo_25" vType="DEFAULT_VEHTYPE" speedFactor="0.87" vaporized=""/>
    <tripinfo id="12" depart="12.00" departLane="left2A2_0" departPos="361.38" departSpeed="14.54" departDelay="0.00" arrival="277.00" arrivalLane="A0bottom0_0" arrivalPos="989.60" arrivalSpeed="13.75" duration="265.00" routeLength="3626.85" waitingTime="0.00" waitingCount="0" stopTime="0.00" timeLoss="14.55" rerouteNo="0" devices="vehroute_12 tripinfo_12" vType="DEFAULT_VEHTYPE" speedFactor="1.05" vaporized=""/>
    <tripinfo id="37" depart="37.00" departLane="bottom0A0_1" departPos="272.52" departSpeed="16.39" departDelay="0.00" arrival="277.00" arrivalLane="A2left2_0" arrivalPos="989.60" arrivalSpeed="15.20" duration="240.00" routeLength="3726.04" waitingTime="0.00" waitingCount="0" stopTime="0.00" timeLoss="11.27" rerouteNo="0" devices="vehroute_37 tripinfo_37" vType="DEFAULT_VEHTYPE" speedFactor="1.18" vaporized=""/>
    <tripinfo id="62" depart="62.00" departLane="bottom0A0_1" departPos="576.11" departSpeed="14.11" departDelay="0.00" arrival="278.00" arrivalLane="A1left1_0" arrivalPos="989.60" arrivalSpeed="13.50" duration="216.00" routeLength="2422.45" waitingTime="26.00" waitingCount="1" stopTime="0.00" timeLoss="43.63" rerouteNo="0" devices="vehroute_62 tripinfo_62" vType="DEFAULT_VEHTYPE" speedFactor="1.02" vaporized=""/>
    <tripinfo id="5" depart="5.00" departLane="top1B2_1" departPos="45.72" departSpeed="11.54" departDelay="0.00" arrival="279.00" arrivalLane="C2right2_0" arrivalPos="989.60" arrivalSpeed="11.43" duration="274.00" routeLength="2952.84" waitingTime="0.00" waitingCount="0" stopTime="0.00" timeLoss="16.40" rerouteNo="0" devices="vehroute_5 tripinfo_5" vType="DEFAULT_VEHTYPE" speedFactor="0.83" vaporized=""/>
    <tripinfo id="88" depart="88.00" departLane="right1C1_0" departPos="629.52" departSpeed="13.99" departDelay="0.00" arrival="279.00" arrivalLane="C2top2_0" arrivalPos="989.60" arrivalSpeed="13.90" duration="191.00" routeLength="2358.71" waitingTime="5.00" waitingCount="1" stopTime="0.00" timeLoss="21.08" rerouteNo="0" devices="vehroute_88 tripinfo_88" vType="DEFAULT_VEHTYPE" speedFactor="1.01" vaporized=""/>
    <tripinfo id="164" depart="164.00" departLane="top0A2_1" departPos="453.89" departSpeed="14.61" departDelay="0.00" arrival="280.00" arrivalLane="A2top0_0" arrivalPos="989.60" arrivalSpeed="13.80" duration="116.00" routeLength="1529.99" waitingTime="0.00" waitingCount="0" stopTime="0.00" timeLoss="10.28" rerouteNo="0" devices="vehroute_164 tripinfo_164" vType="DEFAULT_VEHTYPE" speedFactor="1.05" vaporized=""/>
    <tripinfo id="113" depart="113.00" departLane="right1C1_1" departPos="808.62" departSpeed="14.01" departDelay="0.00" arrival="281.00" arrivalLane="C0right0_0" arrivalPos="989.60" arrivalSpeed="13.17" duration="168.00" routeLength="2188.50" waitingTime="0.00" waitingCount="0" stopTime="0.00" timeLoss="9.78" rerouteNo="0" devices="vehroute_113 tripinfo_113" vType="DEFAULT_VEHTYPE" speedFactor="1.01" vaporized=""/>
    <tripinfo id="21" depart="21.00" departLane="right2C2_1" departPos="539.00" departSpeed="14.03" departDelay="0.00" arrival="283.00" arrivalLane="C0B0_1" arrivalPos="979.20" arrivalSpeed="13.60" duration="262.00" routeLength="3437.39" waitingTime="0.00" waitingCount="0" stopTime="0.00" timeLoss="15.89" rerouteNo="0" devices="vehroute_21 tripinfo_21" vType="DEFAULT_VEHTYPE" speedFactor="1.01" vaporized=""/>
    <tripinfo id="47" depart="47.00" departLane="C2C1_1" departPos="430.24" departSpeed="12.51" departDelay="0.00" arrival="285.00" arrivalLane="C0bottom2_0" arrivalPos="989.60" arrivalSpeed="11.87" duration="238.00" routeLength="2559.36" waitingTime="16.00" waitingCount="1" stopTime="0.00" timeLoss="33.16" rerouteNo="0" devices="vehroute_47 tripinfo_47" vType="DEFAULT_VEHTYPE" speedFactor="0.90" vaporized=""/>
    <tripinfo id="9" depart="9.00" departLane="top2C2_0" departPos="949.96" departSpeed="11.90" departDelay="0.00" arrival="285.00" arrivalLane="A2top0_0" arrivalPos="989.60" arrivalSpeed="11.67" duration="276.00" routeLength="3026.50" waitingTime="0.00" waitingCount="0" stopTime="0.00" timeLoss="19.15" rerouteNo="0" devices="vehroute_9 tripinfo_9" vType="DEFAULT_VEHTYPE" speedFactor="0.86" vaporized=""/>
    <tripinfo id="185" depart="185.00" departLane="top0A2_0" departPos="968.75" departSpeed="8.42" departDelay="0.00" arrival="286.00" arrivalLane="A2left2_0" arrivalPos="989.60" arrivalSpeed="11.60" duration="101.00" routeLength="1019.48" waitingTime="11.00" waitingCount="1" stopTime="0.00" timeLoss="19.41" rerouteNo="0" devices="vehroute_185 tripinfo_185" vType="DEFAULT_VEHTYPE" speedFactor="0.92" vaporized=""/>
    <tripinfo id="158" depart="158.00" departLane="top2C2_1" departPos="493.48" departSpeed="12.64" departDelay="0.00" arrival="289.00" arrivalLane="C2top2_0" arrivalPos="989.60" arrivalSpeed="12.27" duration="131.00" routeLength="1490.40" waitingTime="0.00" waitingCount="0" stopTime="0.00" timeLoss="12.26" rerouteNo="0" devices="vehroute_158 tripinfo_158" vType="DEFAULT_VEHTYPE" speedFactor="0.91" vaporized=""/>
    <tripinfo id="60" depart="60.00" departLane="top2C2_1" departPos="703.89" departSpeed="15.04" departDelay="0.00" arrival="291.00" arrivalLane="C0right0_0" arrivalPos="989.60" arrivalSpeed="14.10" duration="231.00" routeLength="3294.67" waitingTime="0.00" waitingCount="0" stopTime="0.00" timeLoss="11.37" rerouteNo="0" devices="vehroute_60 tripinfo_60" vType="DEFAULT_VEHTYPE" speedFactor="1.08" vaporized=""/>
    <tripinfo id="94" depart="94.00" departLane="bottom0A0_0" departPos="750.04" departSpeed="15.15" departDelay="0.00" arrival="302.00" arrivalLane="B0bottom1_0" arrivalPos="989.60" arrivalSpeed="14.68" duration="208.00" routeLength="2226.42" waitingTime="38.00" waitingCount="2" stopTime="0.00" timeLoss="59.62" rerouteNo="0" devices="vehroute_94 tripinfo_94" vType="DEFAULT_VEHTYPE" speedFactor="1.09" vaporized=""/>
    <tripinfo id="108" depart="108.00" departLane="bottom1B0_1" departPos="462.52" departSpeed="14.79" departDelay="0.00" arrival="305.00" arrivalLane="A0left0_0" arrivalPos="989.60" arrivalSpeed="14.65" duration="197.00" routeLength="2536.04" waitingTime="8.00" waitingCount="1" stopTime="0.00" timeLoss="24.74" rerouteNo="0" devices="vehroute_108 tripinfo_108" vType="DEFAULT_VEHTYPE" speedFactor="1.06" vaporized=""/>
    <tripinfo id="190" depart="190.00" departLane="C1C0_1" departPos="591.34" departSpeed="12.52" departDelay="0.00" arrival="308.00" arrivalLane="C0bottom2_0" arrivalPos="989.60" arrivalSpeed="11.95" duration="118.00" routeLength="1398.26" waitingTime="0.00" waitingCount="0" stopTime="0.00" timeLoss="6.12" rerouteNo="0" devices="vehroute_190 tripinfo_190" vType="DEFAULT_VEHTYPE" speedFactor="0.90" vaporized=""/>
    <tripinfo id="69" depart="70.00" departLane="bottom0A0_0" departPos="127.33" departSpeed="14.20" departDelay="1.00" arrival="312.00" arrivalLane="B0bottom1_0" arrivalPos="989.60" arrivalSpeed="13.33" duration="242.00" routeLength="2849.13" waitingTime="17.00" waitingCount="1" stopTime="0.00" timeLoss="40.07" rerouteNo="0" devices="vehroute_69 tripinfo_69" vType="DEFAULT_VEHTYPE" speedFactor="1.02" vaporized=""/>
    <tripinfo id="116" depart="116.00" departLane="right1C1_1" departPos="931.39" departSpeed="16.35" departDelay="0.00" arrival="312.00" arrivalLane="A1left1_0" arrivalPos="989.60" arrivalSpeed="15.22" duration="196.00" routeLength="3068.61" waitingTime="0.00" waitingCount="0" stopTime="0.00" timeLoss="8.11" rerouteNo="0" devices="vehroute_116 tripinfo_116" vType="DEFAULT_VEHTYPE" speedFactor="1.18" vaporized=""/>
    <tripinfo id="83" depart="83.00" departLane="bottom0A0_0" departPos="698.66" departSpeed="13.43" departDelay="0.00" arrival="314.00" arrivalLane="B0bottom1_0" arrivalPos="989.60" arrivalSpeed="13.06" duration="231.00" routeLength="2277.80" waitingTime="40.00" waitingCount="2" stopTime="0.00" timeLoss="59.68" rerouteNo="0" devices="vehroute_83 tripinfo_83" vType="DEFAULT_VEHTYPE" speedFactor="0.97" vaporized=""/>
    <tripinfo id="74" depart="75.00" departLane="top2C2_0" departPos="707.87" departSpeed="13.27" departDelay="1.00" arrival="315.00" arrivalLane="B2top1_0" arrivalPos="989.60" arrivalSpeed="12.63" duration="240.00" routeLength="2268.59" waitingTime="48.00" waitingCount="2" stopTime="0.00" timeLoss="67.53" rerouteNo="0" devices="vehroute_74 tripinfo_74" vType="DEFAULT_VEHTYPE" speedFactor="0.96" vaporized=""/>
    <tripinfo id="169" depart="169.00" departLane="left1A1_0" departPos="437.84" departSpeed="13.06" departDelay="0.00" arrival="316.00" arrivalLane="A1A0_0" arrivalPos="979.20" arrivalSpeed="12.05" duration="147.00" routeLength="1539.99" waitingTime="16.00" waitingCount="1" stopTime="0.00" timeLoss="28.11" rerouteNo="0" devices="vehroute_169 tripinfo_169" vType="DEFAULT_VEHTYPE" speedFactor="0.94" vaporized=""/>
    <tripinfo id="58" depart="58.00" departLane="bottom0A0_0" departPos="674.49" departSpeed="14.22" departDelay="0.00" arrival="316.00" arrivalLane="C0right0_0" arrivalPos="989.60" arrivalSpeed="14.20" duration="258.00" routeLength="3313.74" waitingTime="6.00" waitingCount="1" stopTime="0.00" timeLoss="23.41" rerouteNo="0" devices="vehroute_58 tripinfo_58" vType="DEFAULT_VEHTYPE" speedFactor="1.02" vaporized=""/>
    <tripinfo id="84" depart="84.00" departLane="left2A2_1" departPos="861.66" departSpeed="15.94" departDelay="0.00" arrival="319.00" arrivalLane="C2right2_0" arrivalPos="989.60" arrivalSpeed="15.69" duration="235.00" routeLength="3138.34" waitingTime="3.00" waitingCount="1" stopTime="0.00" timeLoss="37.34" rerouteNo="0" devices="vehroute_84 tripinfo_84" vType="DEFAULT_VEHTYPE" speedFactor="1.15" vaporized=""/>
    <tripinfo id="65" depart="65.00" departLane="top1B2_0" departPos="189.12" departSpeed="12.26" departDelay="0.00" arrival="321.00" arrivalLane="A2left2_0" arrivalPos="989.60" arrivalSpeed="11.96" duration="256.00" routeLength="2799.11" waitingTime="3.00" waitingCount="1" stopTime="0.00" timeLoss="25.83" rerouteNo="0" devices="vehroute_65 tripinfo_65" vType="DEFAULT_VEHTYPE" speedFactor="0.88" vaporized=""/>
    <tripinfo id="34" depart="34.00" departLane="C1C0_0" departPos="798.29" departSpeed="13.82" departDelay="0.00" arrival="322.00" arrivalLane="A0bottom0_0" arrivalPos="989.60" arrivalSpeed="12.87" duration="288.00" routeLength="3178.10" waitingTime="35.00" waitingCount="2" stopTime="0.00" timeLoss="55.95" rerouteNo="0" devices="vehroute_34 tripinfo_34" vType="DEFAULT_VEHTYPE" speedFactor="0.99" vaporized=""/>
    <tripinfo id="43" depart="43.00" departLane="left2A2_1" departPos="643.82" departSpeed="14.41" departDelay="0.00" arrival="325.00" arrivalLane="C2top2_0" arrivalPos="989.60" arrivalSpeed="13.64" duration="282.00" routeLength="3354.74" waitingTime="26.00" waitingCount="1" stopTime="0.00" timeLoss="48.05" rerouteNo="0" devices="vehroute_43 tripinfo_43" vType="DEFAULT_VEHTYPE" speedFactor="1.04" vaporized=""/>
    <tripinfo id="48" depart="48.00" departLane="top1B2_1" departPos="982.48" departSpeed="5.81" departDelay="0.00" arrival="331.00" arrivalLane="C1right1_0" arrivalPos="989.60" arrivalSpeed="11.73" duration="283.00" routeLength="3016.08" waitingTime="13.00" waitingCount="1" stopTime="0.00" timeLoss="33.64" rerouteNo="0" devices="vehroute_48 tripinfo_48" vType="DEFAULT_VEHTYPE" speedFactor="0.88" vaporized=""/>
    <tripinfo id="15" depart="15.00" departLane="B2A2_1" departPos="580.36" departSpeed="12.87" departDelay="0.00" arrival="332.00" arrivalLane="C2right2_0" arrivalPos="989.60" arrivalSpeed="12.67" duration="317.00" routeLength="3393.12" waitingTime="31.00" waitingCount="1" stopTime="0.00" timeLoss="51.80" rerouteNo="0" devices="vehroute_15 tripinfo_15" vType="DEFAULT_VEHTYPE" speedFactor="0.93" vaporized=""/>
    <tripinfo id="212" depart="212.00" departLane="right0C0_1" departPos="411.68" departSpeed="13.93" departDelay="0.00" arrival="333.00" arrivalLane="C0bottom2_0" arrivalPos="989.60" arrivalSpeed="13.24" duration="121.00" routeLength="1586.88" waitingTime="0.00" waitingCount="0" stopTime="0.00" timeLoss="6.37" rerouteNo="0" devices="vehroute_212 tripinfo_212" vType="DEFAULT_VEHTYPE" speedFactor="1.00" vaporized=""/>
    <tripinfo id="33" depart="33.00" departLane="left2A2_0" departPos="852.85" departSpeed="16.28" departDelay="0.00" arrival="334.00" arrivalLane="B0bottom1_0" arrivalPos="989.60" arrivalSpeed="15.42" duration="301.00" routeLength="4135.38" waitingTime="22.00" waitingCount="1" stopTime="0.00" timeLoss="45.52" rerouteNo="0" devices="vehroute_33 tripinfo_33" vType="DEFAULT_VEHTYPE" speedFactor="1.17" vaporized=""/>
    <tripinfo id="156" depart="156.00" departLane="left1A1_0" departPos="444.80" departSpeed="16.38" departDelay="0.00" arrival="334.00" arrivalLane="A0bottom0_0" arrivalPos="989.60" arrivalSpeed="15.30" duration="178.00" routeLength="2543.43" waitingTime="6.00" waitingCount="1" stopTime="0.00" timeLoss="21.62" rerouteNo="0" devices="vehroute_156 tripinfo_156" vType="DEFAULT_VEHTYPE" speedFactor="1.18" vaporized=""/>
    <tripinfo id="79" depart="79.00" departLane="left1A1_0" departPos="513.94" departSpeed="15.10" departDelay="0.00" arrival="337.00" arrivalLane="B0bottom1_0" arrivalPos="989.60" arrivalSpeed="14.71" duration="258.00" routeLength="3474.29" waitingTime="8.00" waitingCount="1" stopTime="0.00" timeLoss="26.82" rerouteNo="0" devices="vehroute_79 tripinfo_79" vType="DEFAULT_VEHTYPE" speedFactor="1.09" vaporized=""/>
    <tripinfo id="95" depart="95.00" departLane="right1C1_0" departPos="432.93" departSpeed="14.68" departDelay="0.00" arrival="337.00" arrivalLane="C2right2_0" arrivalPos="989.60" arrivalSpeed="13.52" duration="242.00" routeLength="2543.53" waitingTime="52.00" waitingCount="2" stopTime="0.00" timeLoss="67.60" rerouteNo="0" devices="vehroute_95 tripinfo_95" vType="DEFAULT_VEHTYPE" speedFactor="1.06" vaporized=""/>