<?xml version="1.0" encoding="UTF-8"?>

<!-- generated on 05/01/20 11:05:24 by Eclipse SUMO Version 1.1.0
<configuration xmlns:xsi="http://www.w3.org/2001/XMLSchema-instance" xsi:noNamespaceSchemaLocation="http://sumo.dlr.de/xsd/sumoConfiguration.xsd">

    <input>
        <net-file value="./3X3grid/3X3grid.net.xml"/>
        <route-files value="./3X3grid/3X3grid.rou.xml"/>
    </input>

    <output>
        <netstate-dump value="./3X3grid/output/3X3grid_netstate.sumo.tr"/>
        <queue-output value="./3X3grid/output/3X3grid_queues.xml"/>
        <tripinfo-output value="./3X3grid/output//3X3grid_tripinfo.xml"/>
        <vehroute-output value="./3X3grid/output/3X3grid_vehroutes.xml"/>
    </output>

    <time>
        <begin value="0"/>
        <end value="3600"/>
    </time>

    <processing>
        <route-steps value="-1"/>
        <time-to-teleport value="-1"/>
    </processing>

</configuration>
-->

<detector xmlns:xsi="http://www.w3.org/2001/XMLSchema-instance" xsi:noNamespaceSchemaLocation="http://sumo.dlr.de/xsd/det_e1_file.xsd">
    <interval begin="0.00" end="300.00" id="TLSA0_0_InductLoopOn_A1A0_0" nVehContrib="6" flow="72.00" occupancy="0.77" speed="13.07" length="5.00" nVehEntered="6"/>
    <interval begin="0.00" end="300.00" id="TLSA0_0_InductLoopOn_A1A0_1" nVehContrib="3" flow="36.00" occupancy="0.41" speed="12.61" length="5.00" nVehEntered="3"/>
    <interval begin="0.00" end="300.00" id="TLSA0_0_InductLoopOn_B0A0_0" nVehContrib="9" flow="108.00" occupancy="1.16" speed="12.97" length="5.00" nVehEntered="9"/>
    <interval begin="0.00" end="300.00" id="TLSA0_0_InductLoopOn_B0A0_1" nVehContrib="6" flow="72.00" occupancy="0.77" speed="13.81" length="5.00" nVehEntered="7"/>
    <interval begin="0.00" end="300.00" id="TLSA0_0_InductLoopOn_bottom0A0_0" nVehContrib="21" flow="252.00" occupancy="3.20" speed="11.79" length="5.00" nVehEntered="21"/>
    <interval begin="0.00" end="300.00" id="TLSA0_0_InductLoopOn_bottom0A0_1" nVehContrib="6" flow="72.00" occupancy="0.78" speed="12.87" length="5.00" nVehEntered="7"/>
    <interval begin="0.00" end="300.00" id="TLSA0_0_InductLoopOn_left0A0_0" nVehContrib="7" flow="84.00" occupancy="1.14" speed="11.92" length="5.00" nVehEntered="7"/>
    <interval begin="0.00" end="300.00" id="TLSA0_0_InductLoopOn_left0A0_1" nVehContrib="9" flow="108.00" occupancy="1.15" speed="13.14" length="5.00" nVehEntered="9"/>
    <interval begin="0.00" end="300.00" id="TLSA1_0_InductLoopOn_A2A1_0" nVehContrib="7" flow="84.00" occupancy="0.95" speed="12.43" length="5.00" nVehEntered="8"/>
    <interval begin="0.00" end="300.00" id="TLSA1_0_InductLoopOn_A2A1_1" nVehContrib="2" flow="24.00" occupancy="0.48" speed="9.57" length="5.00" nVehEntered="2"/>
    <interval begin="0.00" end="300.00" id="TLSA1_0_InductLoopOn_B1A1_0" nVehContrib="6" flow="72.00" occupancy="0.78" speed="12.94" length="5.00" nVehEntered="6"/>
    <interval begin="0.00" end="300.00" id="TLSA1_0_InductLoopOn_B1A1_1" nVehContrib="1" flow="12.00" occupancy="0.13" speed="12.89" length="5.00" nVehEntered="1"/>
    <interval begin="0.00" end="300.00" id="TLSA1_0_InductLoopOn_A0A1_0" nVehContrib="11" flow="132.00" occupancy="1.46" speed="12.72" length="5.00" nVehEntered="12"/>
    <interval begin="0.00" end="300.00" id="TLSA1_0_InductLoopOn_A0A1_1" nVehContrib="3" flow="36.00" occupancy="0.36" speed="14.09" length="5.00" nVehEntered="3"/>
    <interval begin="0.00" end="300.00" id="TLSA1_0_InductLoopOn_left1A1_0" nVehContrib="10" flow="120.00" occupancy="1.29" speed="12.99" length="5.00" nVehEntered="11"/>
    <interval begin="0.00" end="300.00" id="TLSA1_0_InductLoopOn_left1A1_1" nVehContrib="11" flow="132.00" occupancy="1.66" speed="12.61" length="5.00" nVehEntered="11"/>
    <interval begin="0.00" end="300.00" id="TLSA2_0_InductLoopOn_top0A2_0" nVehContrib="6" flow="72.00" occupancy="0.81" speed="12.58" length="5.00" nVehEntered="6"/>
    <interval begin="0.00" end="300.00" id="TLSA2_0_InductLoopOn_top0A2_1" nVehContrib="9" flow="108.00" occupancy="1.43" speed="12.23" length="5.00" nVehEntered="9"/>
    <interval begin="0.00" end="300.00" id="TLSA2_0_InductLoopOn_B2A2_0" nVehContrib="8" flow="96.00" occupancy="1.08" speed="12.51" length="5.00" nVehEntered="8"/>
    <interval begin="0.00" end="300.00" id="TLSA2_0_InductLoopOn_B2A2_1" nVehContrib="2" flow="24.00" occupancy="0.30" speed="11.10" length="5.00" nVehEntered="2"/>
    <interval begin="0.00" end="300.00" id="TLSA2_0_InductLoopOn_A1A2_0" nVehContrib="8" flow="96.00" occupancy="1.07" speed="12.55" length="5.00" nVehEntered="8"/>
    <interval begin="0.00" end="300.00" id="TLSA2_0_InductLoopOn_A1A2_1" nVehContrib="2" flow="24.00" occupancy="0.25" speed="13.55" length="5.00" nVehEntered="2"/>
    <interval begin="0.00" end="300.00" id="TLSA2_0_InductLoopOn_left2A2_0" nVehContrib="16" flow="192.00" occupancy="2.39" speed="12.22" length="5.00" nVehEntered="16"/>
    <interval begin="0.00" end="300.00" id="TLSA2_0_InductLoopOn_left2A2_1" nVehContrib="3" flow="36.00" occupancy="0.37" speed="13.77" length="5.00" nVehEntered="3"/>
    <interval begin="0.00" end="300.00" id="TLSB0_0_InductLoopOn_B1B0_0" nVehContrib="7" flow="84.00" occupancy="0.84" speed="13.99" length="5.00" nVehEntered="7"/>
    <interval begin="0.00" end="300.00" id="TLSB0_0_InductLoopOn_B1B0_1" nVehContrib="0" flow="0.00" occupancy="0.00" speed="-1.00" length="-1.00" nVehEntered="0"/>
    <interval begin="0.00" end="300.00" id="TLSB0_0_InductLoopOn_C0B0_0" nVehContrib="8" flow="96.00" occupancy="1.02" speed="13.11" length="5.00" nVehEntered="9"/>
    <interval begin="0.00" end="300.00" id="TLSB0_0_InductLoopOn_C0B0_1" nVehContrib="6" flow="72.00" occupancy="1.04" speed="12.19" length="5.00" nVehEntered="6"/>
    <interval begin="0.00" end="300.00" id="TLSB0_0_InductLoopOn_bottom1B0_0" nVehContrib="10" flow="120.00" occupancy="1.30" speed="12.94" length="5.00" nVehEntered="10"/>
    <interval begin="0.00" end="300.00" id="TLSB0_0_InductLoopOn_bottom1B0_1" nVehContrib="9" flow="108.00" occupancy="1.26" speed="12.01" length="5.00" nVehEntered="9"/>
    <interval begin="0.00" end="300.00" id="TLSB0_0_InductLoopOn_A0B0_0" nVehContrib="8" flow="96.00" occupancy="1.08" speed="12.42" length="5.00" nVehEntered="9"/>
    <interval begin="0.00" end="300.00" id="TLSB0_0_InductLoopOn_A0B0_1" nVehContrib="6" flow="72.00" occupancy="1.05" speed="11.43" length="5.00" nVehEntered="6"/>
    <interval begin="0.00" end="300.00" id="TLSB1_0_InductLoopOn_B2B1_0" nVehContrib="9" flow="108.00" occupancy="1.12" speed="13.62" length="5.00" nVehEntered="9"/>
    <interval begin="0.00" end="300.00" id="TLSB1_0_InductLoopOn_B2B1_1" nVehContrib="3" flow="36.00" occupancy="0.37" speed="13.54" length="5.00" nVehEntered="3"/>
    <interval begin="0.00" end="300.00" id="TLSB1_0_InductLoopOn_C1B1_0" nVehContrib="8" flow="96.00" occupancy="0.99" speed="13.59" length="5.00" nVehEntered="8"/>
    <interval begin="0.00" end="300.00" id="TLSB1_0_InductLoopOn_C1B1_1" nVehContrib="1" flow="12.00" occupancy="0.12" speed="13.50" length="5.00" nVehEntered="1"/>
    <interval begin="0.00" end="300.00" id="TLSB1_0_InductLoopOn_B0B1_0" nVehContrib="8" flow="96.00" occupancy="0.99" speed="13.50" length="5.00" nVehEntered="8"/>
    <interval begin="0.00" end="300.00" id="TLSB1_0_InductLoopOn_B0B1_1" nVehContrib="3" flow="36.00" occupancy="0.37" speed="13.69" length="5.00" nVehEntered="3"/>
    <interval begin="0.00" end="300.00" id="TLSB1_0_InductLoopOn_A1B1_0" nVehContrib="9" flow="108.00" occupancy="1.11" speed="13.53" length="5.00" nVehEntered="10"/>
    <interval begin="0.00" end="300.00" id="TLSB1_0_InductLoopOn_A1B1_1" nVehContrib="5" flow="60.00" occupancy="1.00" speed="12.47" length="5.00" nVehEntered="6"/>
    <interval begin="0.00" end="300.00" id="TLSB2_0_InductLoopOn_top1B2_0" nVehContrib="10" flow="120.00" occupancy="1.28" speed="13.10" length="5.00" nVehEntered="11"/>
    <interval begin="0.00" end="300.00" id="TLSB2_0_InductLoopOn_top1B2_1" nVehContrib="8" flow="96.00" occupancy="1.75" speed="9.10" length="5.00" nVehEntered="8"/>
    <interval begin="0.00" end="300.00" id="TLSB2_0_InductLoopOn_C2B2_0" nVehContrib="9" flow="108.00" occupancy="1.19" speed="12.67" length="5.00" nVehEntered="10"/>
    <interval begin="0.00" end="300.00" id="TLSB2_0_InductLoopOn_C2B2_1" nVehContrib="5" flow="60.00" occupancy="0.84" speed="11.69" length="5.00" nVehEntered="5"/>
    <interval begin="0.00" end="300.00" id="TLSB2_0_InductLoopOn_B1B2_0" nVehContrib="7" flow="84.00" occupancy="0.89" speed="13.07" length="5.00" nVehEntered="7"/>
    <interval begin="0.00" end="300.00" id="TLSB2_0_InductLoopOn_B1B2_1" nVehContrib="2" flow="24.00" occupancy="0.29" speed="11.73" length="5.00" nVehEntered="2"/>
    <interval begin="0.00" end="300.00" id="TLSB2_0_InductLoopOn_A2B2_0" nVehContrib="11" flow="132.00" occupancy="1.44" speed="12.92" length="5.00" nVehEntered="12"/>
    <interval begin="0.00" end="300.00" id="TLSB2_0_InductLoopOn_A2B2_1" nVehContrib="3" flow="36.00" occupancy="0.64" speed="10.18" length="5.00" nVehEntered="3"/>
    <interval begin="0.00" end="300.00" id="TLSC0_0_InductLoopOn_C1C0_0" nVehContrib="11" flow="132.00" occupancy="1.42" speed="12.91" length="5.00" nVehEntered="11"/>
    <interval begin="0.00" end="300.00" id="TLSC0_0_InductLoopOn_C1C0_1" nVehContrib="3" flow="36.00" occupancy="0.37" speed="13.35" length="5.00" nVehEntered="3"/>
    <interval begin="0.00" end="300.00" id="TLSC0_0_InductLoopOn_right0C0_0" nVehContrib="9" flow="108.00" occupancy="1.22" speed="12.46" length="5.00" nVehEntered="10"/>
    <interval begin="0.00" end="300.00" id="TLSC0_0_InductLoopOn_right0C0_1" nVehContrib="5" flow="60.00" occupancy="0.96" speed="10.71" length="5.00" nVehEntered="5"/>
    <interval begin="0.00" end="300.00" id="TLSC0_0_InductLoopOn_bottom2C0_0" nVehContrib="7" flow="84.00" occupancy="0.94" speed="12.69" length="5.00" nVehEntered="7"/>
    <interval begin="0.00" end="300.00" id="TLSC0_0_InductLoopOn_bottom2C0_1" nVehContrib="11" flow="132.00" occupancy="1.42" speed="12.93" length="5.00" nVehEntered="11"/>
    <interval begin="0.00" end="300.00" id="TLSC0_0_InductLoopOn_B0C0_0" nVehContrib="3" flow="36.00" occupancy="0.38" speed="13.34" length="5.00" nVehEntered="3"/>
    <interval begin="0.00" end="300.00" id="TLSC0_0_InductLoopOn_B0C0_1" nVehContrib="3" flow="36.00" occupancy="0.37" speed="13.50" length="5.00" nVehEntered="3"/>
    <interval begin="0.00" end="300.00" id="TLSC1_0_InductLoopOn_C2C1_0" nVehContrib="14" flow="168.00" occupancy="1.87" speed="12.60" length="5.00" nVehEntered="14"/>
    <interval begin="0.00" end="300.00" id="TLSC1_0_InductLoopOn_C2C1_1" nVehContrib="3" flow="36.00" occupancy="0.38" speed="13.00" length="5.00" nVehEntered="3"/>
    <interval begin="0.00" end="300.00" id="TLSC1_0_InductLoopOn_right1C1_0" nVehContrib="9" flow="108.00" occupancy="1.24" speed="12.37" length="5.00" nVehEntered="9"/>
    <interval begin="0.00" end="300.00" id="TLSC1_0_InductLoopOn_right1C1_1" nVehContrib="6" flow="72.00" occupancy="0.86" speed="11.85" length="5.00" nVehEntered="6"/>
    <interval begin="0.00" end="300.00" id="TLSC1_0_InductLoopOn_C0C1_0" nVehContrib="8" flow="96.00" occupancy="1.11" speed="12.10" length="5.00" nVehEntered="8"/>
    <interval begin="0.00" end="300.00" id="TLSC1_0_InductLoopOn_C0C1_1" nVehContrib="1" flow="12.00" occupancy="0.12" speed="13.66" length="5.00" nVehEntered="1"/>
    <interval begin="0.00" end="300.00" id="TLSC1_0_InductLoopOn_B1C1_0" nVehContrib="7" flow="84.00" occupancy="0.92" speed="12.88" length="5.00" nVehEntered="7"/>
    <interval begin="0.00" end="300.00" id="TLSC1_0_InductLoopOn_B1C1_1" nVehContrib="3" flow="36.00" occupancy="0.39" speed="12.93" length="5.00" nVehEntered="3"/>
    <interval begin="0.00" end="300.00" id="TLSC2_0_InductLoopOn_top2C2_0" nVehContrib="16" flow="192.00" occupancy="2.07" speed="12.99" length="5.00" nVehEntered="16"/>
    <interval begin="0.00" end="300.00" id="TLSC2_0_InductLoopOn_top2C2_1" nVehContrib="3" flow="36.00" occupancy="0.39" speed="12.77" length="5.00" nVehEntered="3"/>
    <interval begin="0.00" end="300.00" id="TLSC2_0_InductLoopOn_right2C2_0" nVehContrib="9" flow="108.00" occupancy="1.31" speed="12.76" length="5.00" nVehEntered="10"/>
    <interval begin="0.00" end="300.00" id="TLSC2_0_InductLoopOn_right2C2_1" nVehContrib="8" flow="96.00" occupancy="1.06" speed="12.79" length="5.00" nVehEntered="8"/>
    <interval begin="0.00" end="300.00" id="TLSC2_0_InductLoopOn_C1C2_0" nVehContrib="5" flow="60.00" occupancy="0.60" speed="13.92" length="5.00" nVehEntered="5"/>
    <interval begin="0.00" end="300.00" id="TLSC2_0_InductLoopOn_C1C2_1" nVehContrib="2" flow="24.00" occupancy="0.26" speed="12.91" length="5.00" nVehEntered="2"/>
    <interval begin="0.00" end="300.00" id="TLSC2_0_InductLoopOn_B2C2_0" nVehContrib="13" flow="156.00" occupancy="1.78" speed="12.26" length="5.00" nVehEntered="13"/>
    <interval begin="0.00" end="300.00" id="TLSC2_0_InductLoopOn_B2C2_1" nVehContrib="3" flow="36.00" occupancy="0.37" speed="13.60" length="5.00" nVehEntered="3"/>
    <interval begin="300.00" end="600.00" id="TLSA0_0_InductLoopOn_A1A0_0" nVehContrib="6" flow="72.00" occupancy="0.82" speed="13.66" length="5.00" nVehEntered="7"/>
    <interval begin="300.00" end="600.00" id="TLSA0_0_InductLoopOn_A1A0_1" nVehContrib="1" flow="12.00" occupancy="0.14" speed="12.04" length="5.00" nVehEntered="1"/>
    <interval begin="300.00" end="600.00" id="TLSA0_0_InductLoopOn_B0A0_0" nVehContrib="21" flow="252.00" occupancy="2.81" speed="12.67" length="5.00" nVehEntered="21"/>
    <interval begin="300.00" end="600.00" id="TLSA0_0_InductLoopOn_B0A0_1" nVehContrib="15" flow="180.00" occupancy="2.06" speed="12.12" length="5.00" nVehEntered="14"/>
    <interval begin="300.00" end="600.00" id="TLSA0_0_InductLoopOn_bottom0A0_0" nVehContrib="9" flow="108.00" occupancy="1.17" speed="13.07" length="5.00" nVehEntered="9"/>
    <interval begin="300.00" end="600.00" id="TLSA0_0_InductLoopOn_bottom0A0_1" nVehContrib="8" flow="96.00" occupancy="1.12" speed="12.26" length="5.00" nVehEntered="8"/>
    <interval begin="300.00" end="600.00" id="TLSA0_0_InductLoopOn_left0A0_0" nVehContrib="8" flow="96.00" occupancy="1.04" speed="12.86" length="5.00" nVehEntered="8"/>
    <interval begin="300.00" end="600.00" id="TLSA0_0_InductLoopOn_left0A0_1" nVehContrib="10" flow="120.00" occupancy="1.33" speed="12.61" length="5.00" nVehEntered="10"/>
    <interval begin="300.00" end="600.00" id="TLSA1_0_InductLoopOn_A2A1_0" nVehContrib="14" flow="168.00" occupancy="1.86" speed="12.62" length="5.00" nVehEntered="14"/>
    <interval begin="300.00" end="600.00" id="TLSA1_0_InductLoopOn_A2A1_1" nVehContrib="8" flow="96.00" occupancy="1.04" speed="12.94" length="5.00" nVehEntered="8"/>
    <interval begin="300.00" end="600.00" id="TLSA1_0_InductLoopOn_B1A1_0" nVehContrib="19" flow="228.00" occupancy="3.31" speed="11.97" length="5.00" nVehEntered="20"/>
    <interval begin="300.00" end="600.00" id="TLSA1_0_InductLoopOn_B1A1_1" nVehContrib="5" flow="60.00" occupancy="0.89" speed="11.04" length="5.00" nVehEntered="5"/>
    <interval begin="300.00" end="600.00" id="TLSA1_0_InductLoopOn_A0A1_0" nVehContrib="27" flow="324.00" occupancy="3.94" speed="11.87" length="5.00" nVehEntered="26"/>
    <interval begin="300.00" end="600.00" id="TLSA1_0_InductLoopOn_A0A1_1" nVehContrib="8" flow="96.00" occupancy="1.07" speed="12.66" length="5.00" nVehEntered="8"/>
    <interval begin="300.00" end="600.00" id="TLSA1_0_InductLoopOn_left1A1_0" nVehContrib="9" flow="108.00" occupancy="1.17" speed="13.03" length="5.00" nVehEntered="9"/>
    <interval begin="300.00" end="600.00" id="TLSA1_0_InductLoopOn_left1A1_1" nVehContrib="10" flow="120.00" occupancy="1.36" speed="12.34" length="5.00" nVehEntered="10"/>
    <interval begin="300.00" end="600.00" id="TLSA2_0_InductLoopOn_top0A2_0" nVehContrib="12" flow="144.00" occupancy="1.63" speed="12.32" length="5.00" nVehEntered="12"/>
    <interval begin="300.00" end="600.00" id="TLSA2_0_InductLoopOn_top0A2_1" nVehContrib="17" flow="204.00" occupancy="2.25" speed="12.80" length="5.00" nVehEntered="17"/>
    <interval begin="300.00" end="600.00" id="TLSA2_0_InductLoopOn_B2A2_0" nVehContrib="17" flow="204.00" occupancy="2.13" speed="13.36" length="5.00" nVehEntered="18"/>
    <interval begin="300.00" end="600.00" id="TLSA2_0_InductLoopOn_B2A2_1" nVehContrib="5" flow="60.00" occupancy="1.01" speed="10.15" length="5.00" nVehEntered="5"/>
    <interval begin="300.00" end="600.00" id="TLSA2_0_InductLoopOn_A1A2_0" nVehContrib="23" flow="276.00" occupancy="3.14" speed="12.37" length="5.00" nVehEntered="23"/>
    <interval begin="300.00" end="600.00" id="TLSA2_0_InductLoopOn_A1A2_1" nVehContrib="14" flow="168.00" occupancy="1.87" speed="12.53" length="5.00" nVehEntered="14"/>
    <interval begin="300.00" end="600.00" id="TLSA2_0_InductLoopOn_left2A2_0" nVehContrib="11" flow="132.00" occupancy="1.58" speed="11.75" length="5.00" nVehEntered="11"/>
    <interval begin="300.00" end="600.00" id="TLSA2_0_InductLoopOn_left2A2_1" nVehContrib="8" flow="96.00" occupancy="1.02" speed="13.28" length="5.00" nVehEntered="8"/>
    <interval begin="300.00" end="600.00" id="TLSB0_0_InductLoopOn_B1B0_0" nVehContrib="16" flow="192.00" occupancy="2.29" speed="11.99" length="5.00" nVehEntered="18"/>
    <interval begin="300.00" end="600.00" id="TLSB0_0_InductLoopOn_B1B0_1" nVehContrib="8" flow="96.00" occupancy="1.51" speed="11.33" length="5.00" nVehEntered="8"/>
    <interval begin="300.00" end="600.00" id="TLSB0_0_InductLoopOn_C0B0_0" nVehContrib="27" flow="324.00" occupancy="3.95" speed="12.07" length="5.00" nVehEntered="28"/>
    <interval begin="300.00" end="600.00" id="TLSB0_0_InductLoopOn_C0B0_1" nVehContrib="11" flow="132.00" occupancy="2.85" speed="10.31" length="5.00" nVehEntered="11"/>
    <interval begin="300.00" end="600.00" id="TLSB0_0_InductLoopOn_bottom1B0_0" nVehContrib="15" flow="180.00" occupancy="2.09" speed="12.31" length="5.00" nVehEntered="16"/>
    <interval begin="300.00" end="600.00" id="TLSB0_0_InductLoopOn_bottom1B0_1" nVehContrib="5" flow="60.00" occupancy="1.00" speed="10.21" length="5.00" nVehEntered="5"/>
    <interval begin="300.00" end="600.00" id="TLSB0_0_InductLoopOn_A0B0_0" nVehContrib="11" flow="132.00" occupancy="1.49" speed="12.61" length="5.00" nVehEntered="11"/>
    <interval begin="300.00" end="600.00" id="TLSB0_0_InductLoopOn_A0B0_1" nVehContrib="7" flow="84.00" occupancy="0.86" speed="13.54" length="5.00" nVehEntered="7"/>
    <interval begin="300.00" end="600.00" id="TLSB1_0_InductLoopOn_B2B1_0" nVehContrib="23" flow="276.00" occupancy="3.13" speed="12.38" length="5.00" nVehEntered="23"/>
    <interval begin="300.00" end="600.00" id="TLSB1_0_InductLoopOn_B2B1_1" nVehContrib="7" flow="84.00" occupancy="0.85" speed="13.74" length="5.00" nVehEntered="7"/>
    <interval begin="300.00" end="600.00" id="TLSB1_0_InductLoopOn_C1B1_0" nVehContrib="17" flow="204.00" occupancy="2.29" speed="12.43" length="5.00" nVehEntered="17"/>
    <interval begin="300.00" end="600.00" id="TLSB1_0_InductLoopOn_C1B1_1" nVehContrib="6" flow="72.00" occupancy="0.79" speed="12.83" length="5.00" nVehEntered="6"/>
    <interval begin="300.00" end="600.00" id="TLSB1_0_InductLoopOn_B0B1_0" nVehContrib="19" flow="228.00" occupancy="2.56" speed="12.58" length="5.00" nVehEntered="19"/>
    <interval begin="300.00" end="600.00" id="TLSB1_0_InductLoopOn_B0B1_1" nVehContrib="3" flow="36.00" occupancy="0.41" speed="12.19" length="5.00" nVehEntered="3"/>
    <interval begin="300.00" end="600.00" id="TLSB1_0_InductLoopOn_A1B1_0" nVehContrib="19" flow="228.00" occupancy="2.59" speed="12.43" length="5.00" nVehEntered="20"/>
    <interval begin="300.00" end="600.00" id="TLSB1_0_InductLoopOn_A1B1_1" nVehContrib="10" flow="120.00" occupancy="1.40" speed="12.37" length="5.00" nVehEntered="9"/>
    <interval begin="300.00" end="600.00" id="TLSB2_0_InductLoopOn_top1B2_0" nVehContrib="13" flow="156.00" occupancy="1.66" speed="13.17" length="5.00" nVehEntered="13"/>
    <interval begin="300.00" end="600.00" id="TLSB2_0_InductLoopOn_top1B2_1" nVehContrib="8" flow="96.00" occupancy="1.06" speed="12.81" length="5.00" nVehEntered="8"/>
    <interval begin="300.00" end="600.00" id="TLSB2_0_InductLoopOn_C2B2_0" nVehContrib="15" flow="180.00" occupancy="1.89" speed="13.41" length="5.00" nVehEntered="15"/>
    <interval begin="300.00" end="600.00" id="TLSB2_0_InductLoopOn_C2B2_1" nVehContrib="4" flow="48.00" occupancy="0.49" speed="13.75" length="5.00" nVehEntered="4"/>
    <interval begin="300.00" end="600.00" id="TLSB2_0_InductLoopOn_B1B2_0" nVehContrib="19" flow="228.00" occupancy="2.54" speed="12.61" length="5.00" nVehEntered="19"/>
    <interval begin="300.00" end="600.00" id="TLSB2_0_InductLoopOn_B1B2_1" nVehContrib="9" flow="108.00" occupancy="1.19" speed="12.80" length="5.00" nVehEntered="9"/>
    <interval begin="300.00" end="600.00" id="TLSB2_0_InductLoopOn_A2B2_0" nVehContrib="23" flow="276.00" occupancy="3.08" speed="12.52" length="5.00" nVehEntered="23"/>
    <interval begin="300.00" end="600.00" id="TLSB2_0_InductLoopOn_A2B2_1" nVehContrib="7" flow="84.00" occupancy="0.94" speed="12.45" length="5.00" nVehEntered="7"/>
    <interval begin="300.00" end="600.00" id="TLSC0_0_InductLoopOn_C1C0_0" nVehContrib="20" flow="240.00" occupancy="2.74" speed="12.34" length="5.00" nVehEntered="21"/>
    <interval begin="300.00" end="600.00" id="TLSC0_0_InductLoopOn_C1C0_1" nVehContrib="12" flow="144.00" occupancy="1.89" speed="12.40" length="5.00" nVehEntered="13"/>
    <interval begin="300.00" end="600.00" id="TLSC0_0_InductLoopOn_right0C0_0" nVehContrib="11" flow="132.00" occupancy="1.48" speed="12.64" length="5.00" nVehEntered="12"/>
    <interval begin="300.00" end="600.00" id="TLSC0_0_InductLoopOn_right0C0_1" nVehContrib="5" flow="60.00" occupancy="0.88" speed="11.27" length="5.00" nVehEntered="5"/>
    <interval begin="300.00" end="600.00" id="TLSC0_0_InductLoopOn_bottom2C0_0" nVehContrib="15" flow="180.00" occupancy="2.15" speed="12.80" length="5.00" nVehEntered="15"/>
    <interval begin="300.00" end="600.00" id="TLSC0_0_InductLoopOn_bottom2C0_1" nVehContrib="16" flow="192.00" occupancy="2.29" speed="11.87" length="5.00" nVehEntered="16"/>
    <interval begin="300.00" end="600.00" id="TLSC0_0_InductLoopOn_B0C0_0" nVehContrib="15" flow="180.00" occupancy="2.01" speed="12.61" length="5.00" nVehEntered="15"/>
    <interval begin="300.00" end="600.00" id="TLSC0_0_InductLoopOn_B0C0_1" nVehContrib="4" flow="48.00" occupancy="0.47" speed="14.35" length="5.00" nVehEntered="4"/>
    <interval begin="300.00" end="600.00" id="TLSC1_0_InductLoopOn_C2C1_0" nVehContrib="26" flow="312.00" occupancy="3.71" speed="12.03" length="5.00" nVehEntered="26"/>
    <interval begin="300.00" end="600.00" id="TLSC1_0_InductLoopOn_C2C1_1" nVehContrib="12" flow="144.00" occupancy="1.54" speed="13.10" length="5.00" nVehEntered="12"/>
    <interval begin="300.00" end="600.00" id="TLSC1_0_InductLoopOn_right1C1_0" nVehContrib="12" flow="144.00" occupancy="1.61" speed="12.54" length="5.00" nVehEntered="12"/>
    <interval begin="300.00" end="600.00" id="TLSC1_0_InductLoopOn_right1C1_1" nVehContrib="7" flow="84.00" occupancy="0.94" speed="12.59" length="5.00" nVehEntered="7"/>
    <interval begin="300.00" end="600.00" id="TLSC1_0_InductLoopOn_C0C1_0" nVehContrib="26" flow="312.00" occupancy="3.30" speed="13.25" length="5.00" nVehEntered="27"/>
    <interval begin="300.00" end="600.00" id="TLSC1_0_InductLoopOn_C0C1_1" nVehContrib="5" flow="60.00" occupancy="0.91" speed="12.32" length="5.00" nVehEntered="5"/>
    <interval begin="300.00" end="600.00" id="TLSC1_0_InductLoopOn_B1C1_0" nVehContrib="21" flow="252.00" occupancy="2.85" speed="12.55" length="5.00" nVehEntered="22"/>
    <interval begin="300.00" end="600.00" id="TLSC1_0_InductLoopOn_B1C1_1" nVehContrib="10" flow="120.00" occupancy="1.58" speed="11.62" length="5.00" nVehEntered="10"/>
    <interval begin="300.00" end="600.00" id="TLSC2_0_InductLoopOn_top2C2_0" nVehContrib="17" flow="204.00" occupancy="2.30" speed="12.46" length="5.00" nVehEntered="18"/>
    <interval begin="300.00" end="600.00" id="TLSC2_0_InductLoopOn_top2C2_1" nVehContrib="6" flow="72.00" occupancy="1.02" speed="11.96" length="5.00" nVehEntered="6"/>
    <interval begin="300.00" end="600.00" id="TLSC2_0_InductLoopOn_right2C2_0" nVehContrib="12" flow="144.00" occupancy="1.48" speed="12.57" length="5.00" nVehEntered="11"/>
    <interval begin="300.00" end="600.00" id="TLSC2_0_InductLoopOn_right2C2_1" nVehContrib="9" flow="108.00" occupancy="1.14" speed="13.36" length="5.00" nVehEntered="9"/>
    <interval begin="300.00" end="600.00" id="TLSC2_0_InductLoopOn_C1C2_0" nVehContrib="18" flow="216.00" occupancy="2.35" speed="12.86" length="5.00" nVehEntered="18"/>
    <interval begin="300.00" end="600.00" id="TLSC2_0_InductLoopOn_C1C2_1" nVehContrib="6" flow="72.00" occupancy="0.82" speed="12.42" length="5.00" nVehEntered="6"/>
    <interval begin="300.00" end="600.00" id="TLSC2_0_InductLoopOn_B2C2_0" nVehContrib="22" flow="264.00" occupancy="2.97" speed="12.51" length="5.00" nVehEntered="22"/>
    <interval begin="300.00" end="600.00" id="TLSC2_0_InductLoopOn_B2C2_1" nVehContrib="11" flow="132.00" occupancy="1.40" speed="13.09" length="5.00" nVehEntered="11"/>
    <interval begin="600.00" end="900.00" id="TLSA0_0_InductLoopOn_A1A0_0" nVehContrib="21" flow="252.00" occupancy="2.80" speed="12.48" length="5.00" nVehEntered="20"/>
    <interval begin="600.00" end="900.00" id="TLSA0_0_InductLoopOn_A1A0_1" nVehContrib="7" flow="84.00" occupancy="0.97" speed="12.05" length="5.00" nVehEntered="7"/>
    <interval begin="600.00" end="900.00" id="TLSA0_0_InductLoopOn_B0A0_0" nVehContrib="23" flow="276.00" occupancy="3.21" speed="12.35" length="5.00" nVehEntered="23"/>
    <interval begin="600.00" end="900.00" id="TLSA0_0_InductLoopOn_B0A0_1" nVehContrib="15" flow="180.00" occupancy="1.98" speed="12.78" length="5.00" nVehEntered="15"/>
    <interval begin="600.00" end="900.00" id="TLSA0_0_InductLoopOn_bottom0A0_0" nVehContrib="15" flow="180.00" occupancy="1.99" speed="12.68" length="5.00" nVehEntered="15"/>
    <interval begin="600.00" end="900.00" id="TLSA0_0_InductLoopOn_bottom0A0_1" nVehContrib="4" flow="48.00" occupancy="0.51" speed="13.17" length="5.00" nVehEntered="4"/>
    <interval begin="600.00" end="900.00" id="TLSA0_0_InductLoopOn_left0A0_0" nVehContrib="8" flow="96.00" occupancy="1.09" speed="12.46" length="5.00" nVehEntered="8"/>
    <interval begin="600.00" end="900.00" id="TLSA0_0_InductLoopOn_left0A0_1" nVehContrib="14" flow="168.00" occupancy="1.94" speed="12.15" length="5.00" nVehEntered="14"/>
    <interval begin="600.00" end="900.00" id="TLSA1_0_InductLoopOn_A2A1_0" nVehContrib="22" flow="264.00" occupancy="2.98" speed="12.36" length="5.00" nVehEntered="22"/>
    <interval begin="600.00" end="900.00" id="TLSA1_0_InductLoopOn_A2A1_1" nVehContrib="10" flow="120.00" occupancy="1.34" speed="12.47" length="5.00" nVehEntered="10"/>
    <interval begin="600.00" end="900.00" id="TLSA1_0_InductLoopOn_B1A1_0" nVehContrib="14" flow="168.00" occupancy="1.77" speed="13.22" length="5.00" nVehEntered="15"/>
    <interval begin="600.00" end="900.00" id="TLSA1_0_InductLoopOn_B1A1_1" nVehContrib="4" flow="48.00" occupancy="0.80" speed="10.97" length="5.00" nVehEntered="4"/>
    <interval begin="600.00" end="900.00" id="TLSA1_0_InductLoopOn_A0A1_0" nVehContrib="26" flow="312.00" occupancy="3.67" speed="12.10" length="5.00" nVehEntered="29"/>
    <interval begin="600.00" end="900.00" id="TLSA1_0_InductLoopOn_A0A1_1" nVehContrib="12" flow="144.00" occupancy="2.32" speed="10.44" length="5.00" nVehEntered="12"/>
    <interval begin="600.00" end="900.00" id="TLSA1_0_InductLoopOn_left1A1_0" nVehContrib="11" flow="132.00" occupancy="1.73" speed="12.17" length="5.00" nVehEntered="11"/>
    <interval begin="600.00" end="900.00" id="TLSA1_0_InductLoopOn_left1A1_1" nVehContrib="8" flow="96.00" occupancy="1.02" speed="13.16" length="5.00" nVehEntered="9"/>
    <interval begin="600.00" end="900.00" id="TLSA2_0_InductLoopOn_top0A2_0" nVehContrib="18" flow="216.00" occupancy="2.35" speed="12.79" length="5.00" nVehEntered="18"/>
    <interval begin="600.00" end="900.00" id="TLSA2_0_InductLoopOn_top0A2_1" nVehContrib="10" flow="120.00" occupancy="1.41" speed="12.05" length="5.00" nVehEntered="10"/>
    <interval begin="600.00" end="900.00" id="TLSA2_0_InductLoopOn_B2A2_0" nVehContrib="16" flow="192.00" occupancy="2.17" speed="12.50" length="5.00" nVehEntered="16"/>
    <interval begin="600.00" end="900.00" id="TLSA2_0_InductLoopOn_B2A2_1" nVehContrib="5" flow="60.00" occupancy="0.66" speed="12.62" length="5.00" nVehEntered="5"/>
    <interval begin="600.00" end="900.00" id="TLSA2_0_InductLoopOn_A1A2_0" nVehContrib="23" flow="276.00" occupancy="2.98" speed="13.10" length="5.00" nVehEntered="25"/>
    <interval begin="600.00" end="900.00" id="TLSA2_0_InductLoopOn_A1A2_1" nVehContrib="16" flow="192.00" occupancy="2.50" speed="11.92" length="5.00" nVehEntered="16"/>
    <interval begin="600.00" end="900.00" id="TLSA2_0_InductLoopOn_left2A2_0" nVehContrib="10" flow="120.00" occupancy="1.36" speed="12.35" length="5.00" nVehEntered="11"/>
    <interval begin="600.00" end="900.00" id="TLSA2_0_InductLoopOn_left2A2_1" nVehContrib="6" flow="72.00" occupancy="1.03" speed="11.19" length="5.00" nVehEntered="6"/>
    <interval begin="600.00" end="900.00" id="TLSB0_0_InductLoopOn_B1B0_0" nVehContrib="17" flow="204.00" occupancy="2.43" speed="11.98" length="5.00" nVehEntered="18"/>
    <interval begin="600.00" end="900.00" id="TLSB0_0_InductLoopOn_B1B0_1" nVehContrib="5" flow="60.00" occupancy="0.65" speed="12.90" length="5.00" nVehEntered="5"/>
    <interval begin="600.00" end="900.00" id="TLSB0_0_InductLoopOn_C0B0_0" nVehContrib="22" flow="264.00" occupancy="2.99" speed="12.48" length="5.00" nVehEntered="24"/>