<?xml version="1.0" encoding="UTF-8"?>

<!-- generated on 05/01/20 11:04:55 by Eclipse SUMO Version 1.1.0
<configuration xmlns:xsi="http://www.w3.org/2001/XMLSchema-instance" xsi:noNamespaceSchemaLocation="http://sumo.dlr.de/xsd/sumoConfiguration.xsd">

    <input>
        <net-file value="./3X3grid/3X3grid.net.xml"/>
        <route-files value="./3X3grid/3X3grid.rou.xml"/>
        <additional-files value="./3X3grid/newTLS.add.xml"/>
    </input>

    <output>
        <netstate-dump value="./3X3grid/output/3X3grid_netstate.sumo.tr"/>
        <queue-output value="./3X3grid/output/3X3grid_queues.xml"/>
        <tripinfo-output value="./3X3grid/output//3X3grid_tripinfo.xml"/>
        <vehroute-output value="./3X3grid/output/3X3grid_vehroutes.xml"/>
    </output>

    <time>
        <begin value="0"/>
        <end value="3600"/>
    </time>

    <processing>
        <route-steps value="-1"/>
        <time-to-teleport value="-1"/>
    </processing>

</configuration>
-->

<tripinfos xmlns:xsi="http://www.w3.org/2001/XMLSchema-instance" xsi:noNamespaceSchemaLocation="http://sumo.dlr.de/xsd/tripinfo_file.xsd">
    <tripinfo id="0" depart="0.00" departLane="B2A2_0" departPos="872.48" departSpeed="14.72" departDelay="0.00" arrival="87.00" arrivalLane="A2left2_0" arrivalPos="989.60" arrivalSpeed="13.51" duration="87.00" routeLength="1117.12" waitingTime="1.00" waitingCount="1" stopTime="0.00" timeLoss="10.55" rerouteNo="0" devices="vehroute_0 tripinfo_0" vType="DEFAULT_VEHTYPE" speedFactor="1.06" vaporized=""/>
    <tripinfo id="29" depart="29.00" departLane="right0C0_1" departPos="867.13" departSpeed="12.94" departDelay="0.00" arrival="134.00" arrivalLane="C0bottom2_0" arrivalPos="989.60" arrivalSpeed="12.20" duration="105.00" routeLength="1131.43" waitingTime="8.00" waitingCount="1" stopTime="0.00" timeLoss="17.01" rerouteNo="0" devices="vehroute_29 tripinfo_29" vType="DEFAULT_VEHTYPE" speedFactor="0.93" vaporized=""/>
    <tripinfo id="14" depart="14.00" departLane="top1B2_1" departPos="367.75" departSpeed="13.77" departDelay="0.00" arrival="138.00" arrivalLane="B2B1_0" arrivalPos="979.20" arrivalSpeed="13.57" duration="124.00" routeLength="1621.85" waitingTime="0.00" waitingCount="0" stopTime="0.00" timeLoss="5.51" rerouteNo="0" devices="vehroute_14 tripinfo_14" vType="DEFAULT_VEHTYPE" speedFactor="0.99" vaporized=""/>
    <tripinfo id="24" depart="24.00" departLane="right0C0_1" departPos="753.65" departSpeed="11.47" departDelay="0.00" arrival="148.00" arrivalLane="C0bottom2_0" arrivalPos="989.60" arrivalSpeed="10.35" duration="124.00" routeLength="1244.91" waitingTime="2.00" waitingCount="1" stopTime="0.00" timeLoss="13.94" rerouteNo="0" devices="vehroute_24 tripinfo_24" vType="DEFAULT_VEHTYPE" speedFactor="0.83" vaporized=""/>
    <tripinfo id="17" depart="17.00" departLane="C0B0_1" departPos="325.91" departSpeed="13.08" departDelay="0.00" arrival="153.00" arrivalLane="B0bottom1_0" arrivalPos="989.60" arrivalSpeed="11.82" duration="136.00" routeLength="1662.25" waitingTime="0.00" waitingCount="0" stopTime="0.00" timeLoss="7.94" rerouteNo="0" devices="vehroute_17 tripinfo_17" vType="DEFAULT_VEHTYPE" speedFactor="0.94" vaporized=""/>
    <tripinfo id="13" depart="13.00" departLane="bottom1B0_0" departPos="961.38" departSpeed="13.80" departDelay="0.00" arrival="156.00" arrivalLane="C0right0_0" arrivalPos="989.60" arrivalSpeed="14.56" duration="143.00" routeLength="2026.85" waitingTime="0.00" waitingCount="0" stopTime="0.00" timeLoss="11.68" rerouteNo="0" devices="vehroute_13 tripinfo_13" vType="DEFAULT_VEHTYPE" speedFactor="1.12" vaporized=""/>
    <tripinfo id="2" depart="2.00" departLane="right1C1_1" departPos="43.16" departSpeed="14.03" departDelay="0.00" arrival="164.00" arrivalLane="C1right1_0" arrivalPos="989.60" arrivalSpeed="13.49" duration="162.00" routeLength="1940.72" waitingTime="12.00" waitingCount="1" stopTime="0.00" timeLoss="23.15" rerouteNo="0" devices="vehroute_2 tripinfo_2" vType="DEFAULT_VEHTYPE" speedFactor="1.01" vaporized=""/>
    <tripinfo id="16" depart="16.00" departLane="top1B2_1" departPos="335.33" departSpeed="12.20" departDelay="0.00" arrival="166.00" arrivalLane="B2top1_0" arrivalPos="989.60" arrivalSpeed="11.82" duration="150.00" routeLength="1648.55" waitingTime="0.00" waitingCount="0" stopTime="0.00" timeLoss="13.21" rerouteNo="0" devices="vehroute_16 tripinfo_16" vType="DEFAULT_VEHTYPE" speedFactor="0.88" vaporized=""/>
    <tripinfo id="53" depart="53.00" departLane="bottom2C0_1" departPos="453.52" departSpeed="15.22" departDelay="0.00" arrival="167.00" arrivalLane="C0bottom2_0" arrivalPos="989.60" arrivalSpeed="14.96" duration="114.00" routeLength="1530.36" waitingTime="1.00" waitingCount="1" stopTime="0.00" timeLoss="11.69" rerouteNo="0" devices="vehroute_53 tripinfo_53" vType="DEFAULT_VEHTYPE" speedFactor="1.10" vaporized=""/>
    <tripinfo id="1" depart="1.00" departLane="B2C2_0" departPos="44.53" departSpeed="13.03" departDelay="0.00" arrival="169.00" arrivalLane="C2right2_0" arrivalPos="989.60" arrivalSpeed="12.12" duration="168.00" routeLength="1945.07" waitingTime="4.00" waitingCount="1" stopTime="0.00" timeLoss="18.29" rerouteNo="0" devices="vehroute_1 tripinfo_1" vType="DEFAULT_VEHTYPE" speedFactor="0.94" vaporized=""/>
    <tripinfo id="73" depart="73.00" departLane="bottom0A0_1" departPos="807.81" departSpeed="14.66" departDelay="0.00" arrival="173.00" arrivalLane="A0bottom0_0" arrivalPos="989.60" arrivalSpeed="13.53" duration="100.00" routeLength="1176.07" waitingTime="7.00" waitingCount="1" stopTime="0.00" timeLoss="18.47" rerouteNo="0" devices="vehroute_73 tripinfo_73" vType="DEFAULT_VEHTYPE" speedFactor="1.06" vaporized=""/>
    <tripinfo id="7" depart="7.00" departLane="B2A2_1" departPos="29.20" departSpeed="12.31" departDelay="0.00" arrival="175.00" arrivalLane="A2left2_0" arrivalPos="989.60" arrivalSpeed="12.14" duration="168.00" routeLength="1960.40" waitingTime="0.00" waitingCount="0" stopTime="0.00" timeLoss="8.60" rerouteNo="0" devices="vehroute_7 tripinfo_7" vType="DEFAULT_VEHTYPE" speedFactor="0.89" vaporized=""/>
    <tripinfo id="54" depart="54.00" departLane="top1B2_1" departPos="633.98" departSpeed="13.93" departDelay="0.00" arrival="175.00" arrivalLane="B2C2_0" arrivalPos="979.20" arrivalSpeed="13.29" duration="121.00" routeLength="1354.18" waitingTime="8.00" waitingCount="1" stopTime="0.00" timeLoss="22.49" rerouteNo="0" devices="vehroute_54 tripinfo_54" vType="DEFAULT_VEHTYPE" speedFactor="1.00" vaporized=""/>
    <tripinfo id="45" depart="45.00" departLane="right0C0_0" departPos="926.65" departSpeed="15.11" departDelay="0.00" arrival="191.00" arrivalLane="C1right1_0" arrivalPos="989.60" arrivalSpeed="14.75" duration="146.00" routeLength="2049.81" waitingTime="0.00" waitingCount="0" stopTime="0.00" timeLoss="9.39" rerouteNo="0" devices="vehroute_45 tripinfo_45" vType="DEFAULT_VEHTYPE" speedFactor="1.09" vaporized=""/>
    <tripinfo id="99" depart="99.00" departLane="right2C2_0" departPos="675.87" departSpeed="15.24" departDelay="0.00" arrival="193.00" arrivalLane="C2top2_0" arrivalPos="989.60" arrivalSpeed="14.78" duration="94.00" routeLength="1312.36" waitingTime="0.00" waitingCount="0" stopTime="0.00" timeLoss="6.47" rerouteNo="0" devices="vehroute_99 tripinfo_99" vType="DEFAULT_VEHTYPE" speedFactor="1.10" vaporized=""/>
    <tripinfo id="105" depart="105.00" departLane="left2A2_1" departPos="881.62" departSpeed="14.90" departDelay="0.00" arrival="200.00" arrivalLane="A2top0_1" arrivalPos="989.60" arrivalSpeed="14.30" duration="95.00" routeLength="1116.94" waitingTime="11.00" waitingCount="1" stopTime="0.00" timeLoss="18.70" rerouteNo="0" devices="vehroute_105 tripinfo_105" vType="DEFAULT_VEHTYPE" speedFactor="1.07" vaporized=""/>
    <tripinfo id="49" depart="49.00" departLane="left2A2_1" departPos="436.91" departSpeed="11.81" departDelay="0.00" arrival="200.00" arrivalLane="A2top0_0" arrivalPos="989.60" arrivalSpeed="11.31" duration="151.00" routeLength="1561.65" waitingTime="4.00" waitingCount="1" stopTime="0.00" timeLoss="17.21" rerouteNo="0" devices="vehroute_49 tripinfo_49" vType="DEFAULT_VEHTYPE" speedFactor="0.85" vaporized=""/>
    <tripinfo id="70" depart="70.00" departLane="right2C2_1" departPos="312.82" departSpeed="14.21" departDelay="0.00" arrival="201.00" arrivalLane="C2C1_1" arrivalPos="979.20" arrivalSpeed="13.43" duration="131.00" routeLength="1675.34" waitingTime="1.00" waitingCount="1" stopTime="0.00" timeLoss="11.93" rerouteNo="0" devices="vehroute_70 tripinfo_70" vType="DEFAULT_VEHTYPE" speedFactor="1.02" vaporized=""/>
    <tripinfo id="55" depart="55.00" departLane="right0C0_1" departPos="123.02" departSpeed="13.83" departDelay="0.00" arrival="204.00" arrivalLane="C0bottom2_0" arrivalPos="989.60" arrivalSpeed="12.61" duration="149.00" routeLength="1875.54" waitingTime="1.00" waitingCount="1" stopTime="0.00" timeLoss="12.71" rerouteNo="0" devices="vehroute_55 tripinfo_55" vType="DEFAULT_VEHTYPE" speedFactor="1.00" vaporized=""/>
    <tripinfo id="82" depart="82.00" departLane="left1A1_1" departPos="387.69" departSpeed="14.12" departDelay="0.00" arrival="205.00" arrivalLane="A1left1_0" arrivalPos="989.60" arrivalSpeed="13.77" duration="123.00" routeLength="1596.19" waitingTime="0.00" waitingCount="0" stopTime="0.00" timeLoss="8.17" rerouteNo="0" devices="vehroute_82 tripinfo_82" vType="DEFAULT_VEHTYPE" speedFactor="1.02" vaporized=""/>
    <tripinfo id="38" depart="38.00" departLane="left1A1_1" departPos="597.76" departSpeed="15.31" departDelay="0.00" arrival="208.00" arrivalLane="A2top0_0" arrivalPos="989.60" arrivalSpeed="14.43" duration="170.00" routeLength="2400.80" waitingTime="0.00" waitingCount="0" stopTime="0.00" timeLoss="12.03" rerouteNo="0" devices="vehroute_38 tripinfo_38" vType="DEFAULT_VEHTYPE" speedFactor="1.10" vaporized=""/>
    <tripinfo id="85" depart="85.00" departLane="B0A0_0" departPos="319.88" departSpeed="13.56" departDelay="0.00" arrival="222.00" arrivalLane="A0left0_0" arrivalPos="989.60" arrivalSpeed="12.64" duration="137.00" routeLength="1669.72" waitingTime="0.00" waitingCount="0" stopTime="0.00" timeLoss="13.15" rerouteNo="0" devices="vehroute_85 tripinfo_85" vType="DEFAULT_VEHTYPE" speedFactor="0.98" vaporized=""/>
    <tripinfo id="57" depart="57.00" departLane="right1C1_0" departPos="651.92" departSpeed="15.87" departDelay="0.00" arrival="223.00" arrivalLane="C2right2_0" arrivalPos="989.60" arrivalSpeed="15.09" duration="166.00" routeLength="2324.54" waitingTime="4.00" waitingCount="1" stopTime="0.00" timeLoss="18.09" rerouteNo="0" devices="vehroute_57 tripinfo_57" vType="DEFAULT_VEHTYPE" speedFactor="1.14" vaporized=""/>
    <tripinfo id="19" depart="19.00" departLane="B1B0_0" departPos="7.18" departSpeed="16.09" departDelay="0.00" arrival="230.00" arrivalLane="A0bottom0_0" arrivalPos="989.60" arrivalSpeed="15.22" duration="211.00" routeLength="2969.21" waitingTime="9.00" waitingCount="1" stopTime="0.00" timeLoss="24.76" rerouteNo="0" devices="vehroute_19 tripinfo_19" vType="DEFAULT_VEHTYPE" speedFactor="1.16" vaporized=""/>
    <tripinfo id="77" depart="77.00" departLane="bottom1B0_1" departPos="77.95" departSpeed="13.64" departDelay="0.00" arrival="232.00" arrivalLane="B0A0_0" arrivalPos="979.20" arrivalSpeed="13.09" duration="155.00" routeLength="1910.21" waitingTime="0.00" waitingCount="0" stopTime="0.00" timeLoss="13.31" rerouteNo="0" devices="vehroute_77 tripinfo_77" vType="DEFAULT_VEHTYPE" speedFactor="0.98" vaporized=""/>
    <tripinfo id="22" depart="22.00" departLane="bottom1B0_0" departPos="353.32" departSpeed="13.54" departDelay="0.00" arrival="245.00" arrivalLane="C0right0_0" arrivalPos="989.60" arrivalSpeed="13.35" duration="223.00" routeLength="2634.91" waitingTime="7.00" waitingCount="2" stopTime="0.00" timeLoss="27.24" rerouteNo="0" devices="vehroute_22 tripinfo_22" vType="DEFAULT_VEHTYPE" speedFactor="0.98" vaporized=""/>
    <tripinfo id="63" depart="63.00" departLane="B1B2_0" departPos="771.96" departSpeed="13.71" departDelay="0.00" arrival="245.00" arrivalLane="C2top2_0" arrivalPos="989.60" arrivalSpeed="12.66" duration="182.00" routeLength="2204.43" waitingTime="2.00" waitingCount="1" stopTime="0.00" timeLoss="19.83" rerouteNo="0" devices="vehroute_63 tripinfo_63" vType="DEFAULT_VEHTYPE" speedFactor="0.99" vaporized=""/>
    <tripinfo id="122" depart="122.00" departLane="bottom2C0_0" departPos="305.43" departSpeed="14.33" departDelay="0.00" arrival="248.00" arrivalLane="C0right0_0" arrivalPos="989.60" arrivalSpeed="13.33" duration="126.00" routeLength="1682.80" waitingTime="0.00" waitingCount="0" stopTime="0.00" timeLoss="7.15" rerouteNo="0" devices="vehroute_122 tripinfo_122" vType="DEFAULT_VEHTYPE" speedFactor="1.03" vaporized=""/>
    <tripinfo id="62" depart="62.00" departLane="bottom0A0_1" departPos="576.11" departSpeed="14.11" departDelay="0.00" arrival="251.00" arrivalLane="A1left1_0" arrivalPos="989.60" arrivalSpeed="13.17" duration="189.00" routeLength="2422.45" waitingTime="1.00" waitingCount="1" stopTime="0.00" timeLoss="16.56" rerouteNo="0" devices="vehroute_62 tripinfo_62" vType="DEFAULT_VEHTYPE" speedFactor="1.02" vaporized=""/>
    <tripinfo id="3" depart="3.00" departLane="left2A2_1" departPos="737.37" departSpeed="15.04" departDelay="0.00" arrival="253.00" arrivalLane="C2top2_0" arrivalPos="989.60" arrivalSpeed="14.20" duration="250.00" routeLength="3261.19" waitingTime="11.00" waitingCount="2" stopTime="0.00" timeLoss="31.77" rerouteNo="0" devices="vehroute_3 tripinfo_3" vType="DEFAULT_VEHTYPE" speedFactor="1.08" vaporized=""/>
    <tripinfo id="158" depart="158.00" departLane="top2C2_1" departPos="876.88" departSpeed="12.64" departDelay="0.00" arrival="258.00" arrivalLane="C2top2_0" arrivalPos="989.60" arrivalSpeed="12.26" duration="100.00" routeLength="1107.00" waitingTime="1.00" waitingCount="1" stopTime="0.00" timeLoss="10.63" rerouteNo="0" devices="vehroute_158 tripinfo_158" vType="DEFAULT_VEHTYPE" speedFactor="0.91" vaporized=""/>
    <tripinfo id="40" depart="40.00" departLane="top1B2_0" departPos="373.69" departSpeed="14.31" departDelay="0.00" arrival="260.00" arrivalLane="A2left2_0" arrivalPos="989.60" arrivalSpeed="13.69" duration="220.00" routeLength="2614.54" waitingTime="13.00" waitingCount="2" stopTime="0.00" timeLoss="36.13" rerouteNo="0" devices="vehroute_40 tripinfo_40" vType="DEFAULT_VEHTYPE" speedFactor="1.03" vaporized=""/>
    <tripinfo id="74" depart="75.00" departLane="top2C2_0" departPos="707.87" departSpeed="13.27" departDelay="1.00" arrival="260.00" arrivalLane="B2top1_0" arrivalPos="989.60" arrivalSpeed="12.83" duration="185.00" routeLength="2268.59" waitingTime="0.00" waitingCount="0" stopTime="0.00" timeLoss="12.13" rerouteNo="0" devices="vehroute_74 tripinfo_74" vType="DEFAULT_VEHTYPE" speedFactor="0.96" vaporized=""/>
    <tripinfo id="47" depart="47.00" departLane="C2C1_1" departPos="430.24" departSpeed="12.51" departDelay="0.00" arrival="265.00" arrivalLane="C0bottom2_0" arrivalPos="989.60" arrivalSpeed="11.90" duration="218.00" routeLength="2559.36" waitingTime="0.00" waitingCount="0" stopTime="0.00" timeLoss="12.87" rerouteNo="0" devices="vehroute_47 tripinfo_47" vType="DEFAULT_VEHTYPE" speedFactor="0.90" vaporized=""/>
    <tripinfo id="88" depart="88.00" departLane="right1C1_0" departPos="882.99" departSpeed="13.99" departDelay="0.00" arrival="269.00" arrivalLane="C2top2_0" arrivalPos="989.60" arrivalSpeed="13.07" duration="181.00" routeLength="2105.24" waitingTime="9.00" waitingCount="2" stopTime="0.00" timeLoss="29.30" rerouteNo="0" devices="vehroute_88 tripinfo_88" vType="DEFAULT_VEHTYPE" speedFactor="1.01" vaporized=""/>
    <tripinfo id="25" depart="25.00" departLane="left0A0_0" departPos="425.29" departSpeed="12.12" departDelay="0.00" arrival="270.00" arrivalLane="B0bottom1_0" arrivalPos="989.60" arrivalSpeed="11.29" duration="245.00" routeLength="2562.94" waitingTime="11.00" waitingCount="2" stopTime="0.00" timeLoss="31.90" rerouteNo="0" devices="vehroute_25 tripinfo_25" vType="DEFAULT_VEHTYPE" speedFactor="0.87" vaporized=""/>
    <tripinfo id="126" depart="126.00" departLane="top0A2_1" departPos="63.46" departSpeed="14.34" departDelay="0.00" arrival="272.00" arrivalLane="A2top0_0" arrivalPos="989.60" arrivalSpeed="13.42" duration="146.00" routeLength="1920.42" waitingTime="0.00" waitingCount="0" stopTime="0.00" timeLoss="10.83" rerouteNo="0" devices="vehroute_126 tripinfo_126" vType="DEFAULT_VEHTYPE" speedFactor="1.03" vaporized=""/>
    <tripinfo id="94" depart="94.00" departLane="bottom0A0_0" departPos="571.45" departSpeed="15.15" departDelay="0.00" arrival="275.00" arrivalLane="B0bottom1_1" arrivalPos="989.60" arrivalSpeed="15.02" duration="181.00" routeLength="2405.01" waitingTime="7.00" waitingCount="1" stopTime="0.00" timeLoss="21.27" rerouteNo="0" devices="vehroute_94 tripinfo_94" vType="DEFAULT_VEHTYPE" speedFactor="1.09" vaporized=""/>
    <tripinfo id="83" depart="83.00" departLane="bottom0A0_0" departPos="698.66" departSpeed="13.43" departDelay="0.00" arrival="277.00" arrivalLane="B0bottom1_0" arrivalPos="989.60" arrivalSpeed="13.22" duration="194.00" routeLength="2277.80" waitingTime="5.00" waitingCount="2" stopTime="0.00" timeLoss="23.19" rerouteNo="0" devices="vehroute_83 tripinfo_83" vType="DEFAULT_VEHTYPE" speedFactor="0.97" vaporized=""/>
    <tripinfo id="108" depart="108.00" departLane="bottom1B0_1" departPos="738.86" departSpeed="14.79" departDelay="0.00" arrival="278.00" arrivalLane="A0left0_0" arrivalPos="989.60" arrivalSpeed="13.66" duration="170.00" routeLength="2259.70" waitingTime="3.00" waitingCount="1" stopTime="0.00" timeLoss="16.01" rerouteNo="0" devices="vehroute_108 tripinfo_108" vType="DEFAULT_VEHTYPE" speedFactor="1.06" vaporized=""/>
    <tripinfo id="4" depart="4.00" departLane="right2C2_0" departPos="560.39" departSpeed="14.31" departDelay="0.00" arrival="280.00" arrivalLane="A2top0_0" arrivalPos="989.60" arrivalSpeed="13.37" duration="276.00" routeLength="3427.84" waitingTime="6.00" waitingCount="1" stopTime="0.00" timeLoss="35.58" rerouteNo="0" devices="vehroute_4 tripinfo_4" vType="DEFAULT_VEHTYPE" speedFactor="1.03" vaporized=""/>
    <tripinfo id="6" depart="6.00" departLane="C2C1_0" departPos="388.33" departSpeed="14.53" departDelay="0.00" arrival="282.00" arrivalLane="B2top1_0" arrivalPos="989.60" arrivalSpeed="14.12" duration="276.00" routeLength="3577.73" waitingTime="7.00" waitingCount="2" stopTime="0.00" timeLoss="28.22" rerouteNo="0" devices="vehroute_6 tripinfo_6" vType="DEFAULT_VEHTYPE" speedFactor="1.05" vaporized=""/>
    <tripinfo id="112" depart="112.00" departLane="left1A1_1" departPos="670.85" departSpeed="15.26" departDelay="0.00" arrival="286.00" arrivalLane="A2left2_0" arrivalPos="989.60" arrivalSpeed="14.44" duration="174.00" routeLength="2326.27" waitingTime="7.00" waitingCount="1" stopTime="0.00" timeLoss="20.16" rerouteNo="0" devices="vehroute_112 tripinfo_112" vType="DEFAULT_VEHTYPE" speedFactor="1.10" vaporized=""/>
    <tripinfo id="164" depart="164.00" departLane="top0A2_1" departPos="504.72" departSpeed="14.61" departDelay="0.00" arrival="287.00" arrivalLane="A2top0_0" arrivalPos="989.60" arrivalSpeed="14.54" duration="123.00" routeLength="1479.16" waitingTime="6.00" waitingCount="1" stopTime="0.00" timeLoss="19.99" rerouteNo="0" devices="vehroute_164 tripinfo_164" vType="DEFAULT_VEHTYPE" speedFactor="1.05" vaporized=""/>
    <tripinfo id="28" depart="28.00" departLane="right0C0_0" departPos="482.70" departSpeed="15.72" departDelay="0.00" arrival="291.00" arrivalLane="A0left0_0" arrivalPos="989.60" arrivalSpeed="14.90" duration="263.00" routeLength="3517.30" waitingTime="5.00" waitingCount="2" stopTime="0.00" timeLoss="38.74" rerouteNo="0" devices="vehroute_28 tripinfo_28" vType="DEFAULT_VEHTYPE" speedFactor="1.13" vaporized=""/>
    <tripinfo id="124" depart="124.00" departLane="top1B2_1" departPos="947.37" departSpeed="14.74" departDelay="0.00" arrival="291.00" arrivalLane="C2right2_0" arrivalPos="989.60" arrivalSpeed="13.83" duration="167.00" routeLength="2051.19" waitingTime="8.00" waitingCount="2" stopTime="0.00" timeLoss="26.86" rerouteNo="0" devices="vehroute_124 tripinfo_124" vType="DEFAULT_VEHTYPE" speedFactor="1.06" vaporized=""/>
    <tripinfo id="69" depart="70.00" departLane="bottom0A0_0" departPos="127.33" departSpeed="14.20" departDelay="1.00" arrival="293.00" arrivalLane="B0bottom1_0" arrivalPos="989.60" arrivalSpeed="13.10" duration="223.00" routeLength="2849.13" waitingTime="2.00" waitingCount="1" stopTime="0.00" timeLoss="20.27" rerouteNo="0" devices="vehroute_69 tripinfo_69" vType="DEFAULT_VEHTYPE" speedFactor="1.02" vaporized=""/>
    <tripinfo id="9" depart="9.00" departLane="top2C2_0" departPos="949.96" departSpeed="11.90" departDelay="0.00" arrival="293.00" arrivalLane="A2top0_0" arrivalPos="989.60" arrivalSpeed="10.71" duration="284.00" routeLength="3026.50" waitingTime="3.00" waitingCount="1" stopTime="0.00" timeLoss="27.77" rerouteNo="0" devices="vehroute_9 tripinfo_9" vType="DEFAULT_VEHTYPE" speedFactor="0.86" vaporized=""/>
    <tripinfo id="43" depart="43.00" departLane="left2A2_1" departPos="643.82" departSpeed="14.41" departDelay="0.00" arrival="295.00" arrivalLane="C2top2_0" arrivalPos="989.60" arrivalSpeed="14.05" duration="252.00" routeLength="3354.74" waitingTime="1.00" waitingCount="1" stopTime="0.00" timeLoss="18.67" rerouteNo="0" devices="vehroute_43 tripinfo_43" vType="DEFAULT_VEHTYPE" speedFactor="1.04" vaporized=""/>
    <tripinfo id="142" depart="142.00" departLane="right2C2_0" departPos="183.98" departSpeed="13.01" departDelay="0.00" arrival="301.00" arrivalLane="C2top2_0" arrivalPos="989.60" arrivalSpeed="12.10" duration="159.00" routeLength="1804.25" waitingTime="8.00" waitingCount="1" stopTime="0.00" timeLoss="19.14" rerouteNo="0" devices="vehroute_142 tripinfo_142" vType="DEFAULT_VEHTYPE" speedFactor="0.94" vaporized=""/>
    <tripinfo id="12" depart="12.00" departLane="left2A2_0" departPos="361.38" departSpeed="14.54" departDelay="0.00" arrival="302.00" arrivalLane="A0bottom0_0" arrivalPos="989.60" arrivalSpeed="14.18" duration="290.00" routeLength="3626.85" waitingTime="14.00" waitingCount="2" stopTime="0.00" timeLoss="39.32" rerouteNo="0" devices="vehroute_12 tripinfo_12" vType="DEFAULT_VEHTYPE" speedFactor="1.05" vaporized=""/>
    <tripinfo id="169" depart="170.00" departLane="left1A1_0" departPos="529.53" departSpeed="13.06" departDelay="1.00" arrival="302.00" arrivalLane="A1A0_0" arrivalPos="979.20" arrivalSpeed="12.73" duration="132.00" routeLength="1448.30" waitingTime="8.00" waitingCount="1" stopTime="0.00" timeLoss="20.02" rerouteNo="0" devices="vehroute_169 tripinfo_169" vType="DEFAULT_VEHTYPE" speedFactor="0.94" vaporized=""/>
    <tripinfo id="37" depart="37.00" departLane="bottom0A0_1" departPos="272.52" departSpeed="16.39" departDelay="0.00" arrival="303.00" arrivalLane="A2left2_0" arrivalPos="989.60" arrivalSpeed="15.99" duration="266.00" routeLength="3726.04" waitingTime="16.00" waitingCount="2" stopTime="0.00" timeLoss="37.78" rerouteNo="0" devices="vehroute_37 tripinfo_37" vType="DEFAULT_VEHTYPE" speedFactor="1.18" vaporized=""/>
    <tripinfo id="190" depart="190.00" departLane="C1C0_1" departPos="649.35" departSpeed="12.52" departDelay="0.00" arrival="303.00" arrivalLane="C0bottom2_0" arrivalPos="989.60" arrivalSpeed="11.37" duration="113.00" routeLength="1340.25" waitingTime="0.00" waitingCount="0" stopTime="0.00" timeLoss="5.60" rerouteNo="0" devices="vehroute_190 tripinfo_190" vType="DEFAULT_VEHTYPE" speedFactor="0.90" vaporized=""/>
    <tripinfo id="125" depart="125.00" departLane="B1B0_0" departPos="744.13" departSpeed="16.01" departDelay="0.00" arrival="305.00" arrivalLane="A0bottom0_1" arrivalPos="989.60" arrivalSpeed="15.66" duration="180.00" routeLength="2232.26" waitingTime="22.00" waitingCount="2" stopTime="0.00" timeLoss="38.81" rerouteNo="0" devices="vehroute_125 tripinfo_125" vType="DEFAULT_VEHTYPE" speedFactor="1.15" vaporized=""/>
    <tripinfo id="34" depart="34.00" departLane="C1C0_0" departPos="798.29" departSpeed="13.82" departDelay="0.00" arrival="305.00" arrivalLane="A0bottom0_0" arrivalPos="989.60" arrivalSpeed="13.80" duration="271.00" routeLength="3178.10" waitingTime="13.00" waitingCount="3" stopTime="0.00" timeLoss="38.71" rerouteNo="0" devices="vehroute_34 tripinfo_34" vType="DEFAULT_VEHTYPE" speedFactor="0.99" vaporized=""/>
    <tripinfo id="60" depart="60.00" departLane="top2C2_1" departPos="703.89" departSpeed="15.04" departDelay="0.00" arrival="305.00" arrivalLane="C0right0_0" arrivalPos="989.60" arrivalSpeed="14.19" duration="245.00" routeLength="3294.67" waitingTime="2.00" waitingCount="1" stopTime="0.00" timeLoss="25.12" rerouteNo="0" devices="vehroute_60 tripinfo_60" vType="DEFAULT_VEHTYPE" speedFactor="1.08" vaporized=""/>
    <tripinfo id="217" depart="217.00" departLane="top0A2_1" departPos="800.83" departSpeed="14.87" departDelay="0.00" arrival="305.00" arrivalLane="A2top0_0" arrivalPos="989.60" arrivalSpeed="13.81" duration="88.00" routeLength="1183.05" waitingTime="0.00" waitingCount="0" stopTime="0.00" timeLoss="7.55" rerouteNo="0" devices="vehroute_217 tripinfo_217" vType="DEFAULT_VEHTYPE" speedFactor="1.07" vaporized=""/>
    <tripinfo id="21" depart="21.00" departLane="right2C2_1" departPos="539.00" departSpeed="14.03" departDelay="0.00" arrival="306.00" arrivalLane="C0B0_0" arrivalPos="979.20" arrivalSpeed="13.75" duration="285.00" routeLength="3437.39" waitingTime="14.00" waitingCount="2" stopTime="0.00" timeLoss="38.56" rerouteNo="0" devices="vehroute_21 tripinfo_21" vType="DEFAULT_VEHTYPE" speedFactor="1.01" vaporized=""/>
    <tripinfo id="15" depart="15.00" departLane="B2A2_1" departPos="580.36" departSpeed="12.87" departDelay="0.00" arrival="308.00" arrivalLane="C2right2_0" arrivalPos="989.60" arrivalSpeed="12.31" duration="293.00" routeLength="3393.12" waitingTime="3.00" waitingCount="1" stopTime="0.00" timeLoss="27.88" rerouteNo="0" devices="vehroute_15 tripinfo_15" vType="DEFAULT_VEHTYPE" speedFactor="0.93" vaporized=""/>
    <tripinfo id="65" depart="65.00" departLane="top1B2_0" departPos="189.12" departSpeed="12.26" departDelay="0.00" arrival="309.00" arrivalLane="A2left2_0" arrivalPos="989.60" arrivalSpeed="11.93" duration="244.00" routeLength="2799.11" waitingTime="0.00" waitingCount="0" stopTime="0.00" timeLoss="14.41" rerouteNo="0" devices="vehroute_65 tripinfo_65" vType="DEFAULT_VEHTYPE" speedFactor="0.88" vaporized=""/>
    <tripinfo id="11" depart="11.00" departLane="C2B2_1" departPos="78.34" departSpeed="14.26" departDelay="0.00" arrival="310.00" arrivalLane="C1right1_0" arrivalPos="989.60" arrivalSpeed="13.62" duration="299.00" routeLength="3881.93" waitingTime="2.00" waitingCount="1" stopTime="0.00" timeLoss="25.03" rerouteNo="0" devices="vehroute_11 tripinfo_11" vType="DEFAULT_VEHTYPE" speedFactor="1.03" vaporized=""/>
    <tripinfo id="5" depart="5.00" departLane="top1B2_1" departPos="45.72" departSpeed="11.54" departDelay="0.00" arrival="312.00" arrivalLane="C2right2_0" arrivalPos="989.60" arrivalSpeed="10.54" duration="307.00" routeLength="2952.84" waitingTime="20.00" waitingCount="3" stopTime="0.00" timeLoss="49.91" rerouteNo="0" devices="vehroute_5 tripinfo_5" vType="DEFAULT_VEHTYPE" speedFactor="0.83" vaporized=""/>
    <tripinfo id="51" depart="51.00" departLane="B0B1_0" departPos="124.09" departSpeed="16.24" departDelay="0.00" arrival="313.00" arrivalLane="C0bottom2_0" arrivalPos="989.60" arrivalSpeed="15.58" duration="262.00" routeLength="3841.97" waitingTime="6.00" waitingCount="1" stopTime="0.00" timeLoss="23.84" rerouteNo="0" devices="vehroute_51 tripinfo_51" vType="DEFAULT_VEHTYPE" speedFactor="1.17" vaporized=""/>
    <tripinfo id="185" depart="185.00" departLane="top0A2_0" departPos="436.17" departSpeed="12.72" departDelay="0.00" arrival="316.00" arrivalLane="A2left2_0" arrivalPos="989.60" arrivalSpeed="12.32" duration="131.00" routeLength="1552.06" waitingTime="0.00" waitingCount="0" stopTime="0.00" timeLoss="7.83" rerouteNo="0" devices="vehroute_185 tripinfo_185" vType="DEFAULT_VEHTYPE" speedFactor="0.92" vaporized=""/>
    <tripinfo id="229" depart="229.00" departLane="left1A1_1" departPos="904.61" departSpeed="13.82" departDelay="0.00" arrival="317.00" arrivalLane="A1left1_0" arrivalPos="989.60" arrivalSpeed="13.79" duration="88.00" routeLength="1079.27" waitingTime="0.00" waitingCount="0" stopTime="0.00" timeLoss="8.85" rerouteNo="0" devices="vehroute_229 tripinfo_229" vType="DEFAULT_VEHTYPE" speedFactor="0.99" vaporized=""/>
    <tripinfo id="95" depart="95.00" departLane="right1C1_0" departPos="205.56" departSpeed="14.68" departDelay="0.00" arrival="321.00" arrivalLane="C2right2_0" arrivalPos="989.60" arrivalSpeed="13.39" duration="226.00" routeLength="2770.90" waitingTime="18.00" waitingCount="2" stopTime="0.00" timeLoss="36.08" rerouteNo="0" devices="vehroute_95 tripinfo_95" vType="DEFAULT_VEHTYPE" speedFactor="1.06" vaporized=""/>
    <tripinfo id="173" depart="173.00" departLane="bottom0A0_1" departPos="60.33" departSpeed="15.86" departDelay="0.00" arrival="323.00" arrivalLane="A0left0_0" arrivalPos="989.60" arrivalSpeed="15.08" duration="150.00" routeLength="1938.23" waitingTime="15.00" waitingCount="2" stopTime="0.00" timeLoss="27.02" rerouteNo="0" devices="vehroute_173 tripinfo_173" vType="DEFAULT_VEHTYPE" speedFactor="1.14" vaporized=""/>
    <tripinfo id="155" depart="155.00" departLane="left0A0_0" departPos="778.99" departSpeed="15.61" departDelay="0.00" arrival="324.00" arrivalLane="B0bottom1_0" arrivalPos="989.60" arrivalSpeed="15.19" duration="169.00" routeLength="2209.24" waitingTime="7.00" waitingCount="2" stopTime="0.00" timeLoss="26.23" rerouteNo="0" devices="vehroute_155 tripinfo_155" vType="DEFAULT_VEHTYPE" speedFactor="1.12" vaporized=""/>