<?xml version="1.0" encoding="UTF-8"?>

<!-- generated on 05/01/20 11:05:24 by Eclipse SUMO Version 1.1.0
<configuration xmlns:xsi="http://www.w3.org/2001/XMLSchema-instance" xsi:noNamespaceSchemaLocation="http://sumo.dlr.de/xsd/sumoConfiguration.xsd">

    <input>
        <net-file value="./3X3grid/3X3grid.net.xml"/>
        <route-files value="./3X3grid/3X3grid.rou.xml"/>
    </input>

    <output>
        <netstate-dump value="./3X3grid/output/3X3grid_netstate.sumo.tr"/>
        <queue-output value="./3X3grid/output/3X3grid_queues.xml"/>
        <tripinfo-output value="./3X3grid/output//3X3grid_tripinfo.xml"/>
        <vehroute-output value="./3X3grid/output/3X3grid_vehroutes.xml"/>
    </output>

    <time>
        <begin value="0"/>
        <end value="3600"/>
    </time>

    <processing>
        <route-steps value="-1"/>
        <time-to-teleport value="-1"/>
    </processing>

</configuration>
-->

<tripinfos xmlns:xsi="http://www.w3.org/2001/XMLSchema-instance" xsi:noNamespaceSchemaLocation="http://sumo.dlr.de/xsd/tripinfo_file.xsd">
    <tripinfo id="0" depart="0.00" departLane="B2A2_0" departPos="872.48" departSpeed="14.72" departDelay="0.00" arrival="80.00" arrivalLane="A2left2_0" arrivalPos="989.60" arrivalSpeed="14.29" duration="80.00" routeLength="1117.12" waitingTime="0.00" waitingCount="0" stopTime="0.00" timeLoss="3.95" rerouteNo="0" devices="vehroute_0 tripinfo_0" vType="DEFAULT_VEHTYPE" speedFactor="1.06" vaporized=""/>
    <tripinfo id="29" depart="29.00" departLane="right0C0_1" departPos="867.13" departSpeed="12.94" departDelay="0.00" arrival="123.00" arrivalLane="C0bottom2_0" arrivalPos="989.60" arrivalSpeed="12.19" duration="94.00" routeLength="1131.43" waitingTime="0.00" waitingCount="0" stopTime="0.00" timeLoss="5.56" rerouteNo="0" devices="vehroute_29 tripinfo_29" vType="DEFAULT_VEHTYPE" speedFactor="0.93" vaporized=""/>
    <tripinfo id="14" depart="14.00" departLane="top1B2_1" departPos="367.75" departSpeed="13.77" departDelay="0.00" arrival="142.00" arrivalLane="B2B1_0" arrivalPos="979.20" arrivalSpeed="13.52" duration="128.00" routeLength="1621.85" waitingTime="0.00" waitingCount="0" stopTime="0.00" timeLoss="9.51" rerouteNo="0" devices="vehroute_14 tripinfo_14" vType="DEFAULT_VEHTYPE" speedFactor="0.99" vaporized=""/>
    <tripinfo id="24" depart="24.00" departLane="right0C0_1" departPos="753.65" departSpeed="11.47" departDelay="0.00" arrival="142.00" arrivalLane="C0bottom2_0" arrivalPos="989.60" arrivalSpeed="10.78" duration="118.00" routeLength="1244.91" waitingTime="0.00" waitingCount="0" stopTime="0.00" timeLoss="7.93" rerouteNo="0" devices="vehroute_24 tripinfo_24" vType="DEFAULT_VEHTYPE" speedFactor="0.83" vaporized=""/>
    <tripinfo id="2" depart="2.00" departLane="right1C1_1" departPos="43.16" departSpeed="14.03" departDelay="0.00" arrival="152.00" arrivalLane="C1right1_0" arrivalPos="989.60" arrivalSpeed="12.91" duration="150.00" routeLength="1940.72" waitingTime="0.00" waitingCount="0" stopTime="0.00" timeLoss="10.64" rerouteNo="0" devices="vehroute_2 tripinfo_2" vType="DEFAULT_VEHTYPE" speedFactor="1.01" vaporized=""/>
    <tripinfo id="17" depart="17.00" departLane="C0B0_1" departPos="325.91" departSpeed="13.08" departDelay="0.00" arrival="155.00" arrivalLane="B0bottom1_0" arrivalPos="989.60" arrivalSpeed="12.51" duration="138.00" routeLength="1662.25" waitingTime="0.00" waitingCount="0" stopTime="0.00" timeLoss="9.34" rerouteNo="0" devices="vehroute_17 tripinfo_17" vType="DEFAULT_VEHTYPE" speedFactor="0.94" vaporized=""/>
    <tripinfo id="1" depart="1.00" departLane="B2C2_0" departPos="44.53" departSpeed="13.03" departDelay="0.00" arrival="158.00" arrivalLane="C2right2_0" arrivalPos="989.60" arrivalSpeed="12.50" duration="157.00" routeLength="1945.07" waitingTime="0.00" waitingCount="0" stopTime="0.00" timeLoss="7.35" rerouteNo="0" devices="vehroute_1 tripinfo_1" vType="DEFAULT_VEHTYPE" speedFactor="0.94" vaporized=""/>
    <tripinfo id="73" depart="73.00" departLane="bottom0A0_1" departPos="807.81" departSpeed="14.66" departDelay="0.00" arrival="162.00" arrivalLane="A0bottom0_0" arrivalPos="989.60" arrivalSpeed="14.11" duration="89.00" routeLength="1176.07" waitingTime="0.00" waitingCount="0" stopTime="0.00" timeLoss="8.23" rerouteNo="0" devices="vehroute_73 tripinfo_73" vType="DEFAULT_VEHTYPE" speedFactor="1.06" vaporized=""/>
    <tripinfo id="53" depart="53.00" departLane="bottom2C0_1" departPos="453.52" departSpeed="15.22" departDelay="0.00" arrival="163.00" arrivalLane="C0bottom2_0" arrivalPos="989.60" arrivalSpeed="14.67" duration="110.00" routeLength="1530.36" waitingTime="0.00" waitingCount="0" stopTime="0.00" timeLoss="8.69" rerouteNo="0" devices="vehroute_53 tripinfo_53" vType="DEFAULT_VEHTYPE" speedFactor="1.10" vaporized=""/>
    <tripinfo id="13" depart="13.00" departLane="bottom1B0_0" departPos="961.38" departSpeed="13.80" departDelay="0.00" arrival="166.00" arrivalLane="C0right0_0" arrivalPos="989.60" arrivalSpeed="14.65" duration="153.00" routeLength="2026.85" waitingTime="8.00" waitingCount="1" stopTime="0.00" timeLoss="22.04" rerouteNo="0" devices="vehroute_13 tripinfo_13" vType="DEFAULT_VEHTYPE" speedFactor="1.12" vaporized=""/>
    <tripinfo id="54" depart="54.00" departLane="top1B2_1" departPos="633.98" departSpeed="13.93" departDelay="0.00" arrival="166.00" arrivalLane="B2C2_0" arrivalPos="979.20" arrivalSpeed="13.65" duration="112.00" routeLength="1354.18" waitingTime="0.00" waitingCount="0" stopTime="0.00" timeLoss="14.16" rerouteNo="0" devices="vehroute_54 tripinfo_54" vType="DEFAULT_VEHTYPE" speedFactor="1.00" vaporized=""/>
    <tripinfo id="16" depart="16.00" departLane="top1B2_1" departPos="335.33" departSpeed="12.20" departDelay="0.00" arrival="173.00" arrivalLane="B2top1_0" arrivalPos="989.60" arrivalSpeed="11.52" duration="157.00" routeLength="1648.55" waitingTime="7.00" waitingCount="1" stopTime="0.00" timeLoss="20.22" rerouteNo="0" devices="vehroute_16 tripinfo_16" vType="DEFAULT_VEHTYPE" speedFactor="0.88" vaporized=""/>
    <tripinfo id="7" depart="7.00" departLane="B2A2_1" departPos="29.20" departSpeed="12.31" departDelay="0.00" arrival="176.00" arrivalLane="A2left2_0" arrivalPos="989.60" arrivalSpeed="11.19" duration="169.00" routeLength="1960.40" waitingTime="0.00" waitingCount="0" stopTime="0.00" timeLoss="9.24" rerouteNo="0" devices="vehroute_7 tripinfo_7" vType="DEFAULT_VEHTYPE" speedFactor="0.89" vaporized=""/>
    <tripinfo id="99" depart="99.00" departLane="right2C2_0" departPos="758.79" departSpeed="15.24" departDelay="0.00" arrival="196.00" arrivalLane="C2top2_0" arrivalPos="989.60" arrivalSpeed="15.03" duration="97.00" routeLength="1229.44" waitingTime="5.00" waitingCount="1" stopTime="0.00" timeLoss="15.74" rerouteNo="0" devices="vehroute_99 tripinfo_99" vType="DEFAULT_VEHTYPE" speedFactor="1.10" vaporized=""/>
    <tripinfo id="49" depart="49.00" departLane="left2A2_1" departPos="436.91" departSpeed="11.81" departDelay="0.00" arrival="197.00" arrivalLane="A2top0_0" arrivalPos="989.60" arrivalSpeed="10.89" duration="148.00" routeLength="1561.65" waitingTime="1.00" waitingCount="1" stopTime="0.00" timeLoss="14.48" rerouteNo="0" devices="vehroute_49 tripinfo_49" vType="DEFAULT_VEHTYPE" speedFactor="0.85" vaporized=""/>
    <tripinfo id="70" depart="70.00" departLane="right2C2_1" departPos="312.82" departSpeed="14.21" departDelay="0.00" arrival="202.00" arrivalLane="C2C1_1" arrivalPos="979.20" arrivalSpeed="13.11" duration="132.00" routeLength="1675.34" waitingTime="2.00" waitingCount="1" stopTime="0.00" timeLoss="12.87" rerouteNo="0" devices="vehroute_70 tripinfo_70" vType="DEFAULT_VEHTYPE" speedFactor="1.02" vaporized=""/>
    <tripinfo id="45" depart="45.00" departLane="right0C0_0" departPos="926.65" departSpeed="15.11" departDelay="0.00" arrival="204.00" arrivalLane="C1right1_0" arrivalPos="989.60" arrivalSpeed="14.65" duration="159.00" routeLength="2049.81" waitingTime="8.00" waitingCount="1" stopTime="0.00" timeLoss="22.23" rerouteNo="0" devices="vehroute_45 tripinfo_45" vType="DEFAULT_VEHTYPE" speedFactor="1.09" vaporized=""/>
    <tripinfo id="126" depart="126.00" departLane="top0A2_1" departPos="946.00" departSpeed="14.34" departDelay="0.00" arrival="206.00" arrivalLane="A2top0_0" arrivalPos="989.60" arrivalSpeed="14.18" duration="80.00" routeLength="1037.88" waitingTime="0.00" waitingCount="0" stopTime="0.00" timeLoss="6.58" rerouteNo="0" devices="vehroute_126 tripinfo_126" vType="DEFAULT_VEHTYPE" speedFactor="1.03" vaporized=""/>
    <tripinfo id="55" depart="55.00" departLane="right0C0_1" departPos="123.02" departSpeed="13.83" departDelay="0.00" arrival="207.00" arrivalLane="C0bottom2_0" arrivalPos="989.60" arrivalSpeed="13.03" duration="152.00" routeLength="1875.54" waitingTime="3.00" waitingCount="1" stopTime="0.00" timeLoss="15.19" rerouteNo="0" devices="vehroute_55 tripinfo_55" vType="DEFAULT_VEHTYPE" speedFactor="1.00" vaporized=""/>
    <tripinfo id="85" depart="85.00" departLane="B0A0_1" departPos="529.43" departSpeed="13.56" departDelay="0.00" arrival="208.00" arrivalLane="A0left0_0" arrivalPos="989.60" arrivalSpeed="13.14" duration="123.00" routeLength="1460.17" waitingTime="6.00" waitingCount="1" stopTime="0.00" timeLoss="15.23" rerouteNo="0" devices="vehroute_85 tripinfo_85" vType="DEFAULT_VEHTYPE" speedFactor="0.98" vaporized=""/>
    <tripinfo id="38" depart="38.00" departLane="left1A1_1" departPos="597.76" departSpeed="15.31" departDelay="0.00" arrival="214.00" arrivalLane="A2top0_0" arrivalPos="989.60" arrivalSpeed="14.38" duration="176.00" routeLength="2400.80" waitingTime="5.00" waitingCount="1" stopTime="0.00" timeLoss="18.26" rerouteNo="0" devices="vehroute_38 tripinfo_38" vType="DEFAULT_VEHTYPE" speedFactor="1.10" vaporized=""/>
    <tripinfo id="19" depart="19.00" departLane="B1B0_0" departPos="7.18" departSpeed="16.09" departDelay="0.00" arrival="217.00" arrivalLane="A0bottom0_0" arrivalPos="989.60" arrivalSpeed="15.17" duration="198.00" routeLength="2969.21" waitingTime="0.00" waitingCount="0" stopTime="0.00" timeLoss="11.99" rerouteNo="0" devices="vehroute_19 tripinfo_19" vType="DEFAULT_VEHTYPE" speedFactor="1.16" vaporized=""/>
    <tripinfo id="57" depart="57.00" departLane="right1C1_0" departPos="651.92" departSpeed="15.87" departDelay="0.00" arrival="224.00" arrivalLane="C2right2_0" arrivalPos="989.60" arrivalSpeed="14.82" duration="167.00" routeLength="2324.54" waitingTime="5.00" waitingCount="1" stopTime="0.00" timeLoss="19.16" rerouteNo="0" devices="vehroute_57 tripinfo_57" vType="DEFAULT_VEHTYPE" speedFactor="1.14" vaporized=""/>
    <tripinfo id="105" depart="105.00" departLane="left2A2_1" departPos="406.43" departSpeed="14.90" departDelay="0.00" arrival="226.00" arrivalLane="A2top0_0" arrivalPos="989.60" arrivalSpeed="13.65" duration="121.00" routeLength="1592.13" waitingTime="3.00" waitingCount="1" stopTime="0.00" timeLoss="13.08" rerouteNo="0" devices="vehroute_105 tripinfo_105" vType="DEFAULT_VEHTYPE" speedFactor="1.07" vaporized=""/>
    <tripinfo id="82" depart="82.00" departLane="left1A1_1" departPos="200.13" departSpeed="14.12" departDelay="0.00" arrival="229.00" arrivalLane="A1left1_0" arrivalPos="989.60" arrivalSpeed="13.19" duration="147.00" routeLength="1783.75" waitingTime="10.00" waitingCount="1" stopTime="0.00" timeLoss="19.94" rerouteNo="0" devices="vehroute_82 tripinfo_82" vType="DEFAULT_VEHTYPE" speedFactor="1.02" vaporized=""/>
    <tripinfo id="122" depart="122.00" departLane="bottom2C0_0" departPos="608.50" departSpeed="14.33" departDelay="0.00" arrival="229.00" arrivalLane="C0right0_0" arrivalPos="989.60" arrivalSpeed="13.52" duration="107.00" routeLength="1379.73" waitingTime="0.00" waitingCount="0" stopTime="0.00" timeLoss="9.77" rerouteNo="0" devices="vehroute_122 tripinfo_122" vType="DEFAULT_VEHTYPE" speedFactor="1.03" vaporized=""/>
    <tripinfo id="77" depart="77.00" departLane="bottom1B0_1" departPos="77.95" departSpeed="13.64" departDelay="0.00" arrival="230.00" arrivalLane="B0A0_0" arrivalPos="979.20" arrivalSpeed="12.76" duration="153.00" routeLength="1910.21" waitingTime="0.00" waitingCount="0" stopTime="0.00" timeLoss="11.48" rerouteNo="0" devices="vehroute_77 tripinfo_77" vType="DEFAULT_VEHTYPE" speedFactor="0.98" vaporized=""/>
    <tripinfo id="40" depart="40.00" departLane="top1B2_0" departPos="373.69" departSpeed="14.31" departDelay="0.00" arrival="237.00" arrivalLane="A2left2_0" arrivalPos="989.60" arrivalSpeed="13.96" duration="197.00" routeLength="2614.54" waitingTime="0.00" waitingCount="0" stopTime="0.00" timeLoss="12.90" rerouteNo="0" devices="vehroute_40 tripinfo_40" vType="DEFAULT_VEHTYPE" speedFactor="1.03" vaporized=""/>
    <tripinfo id="22" depart="22.00" departLane="bottom1B0_0" departPos="353.32" departSpeed="13.54" departDelay="0.00" arrival="239.00" arrivalLane="C0right0_0" arrivalPos="989.60" arrivalSpeed="13.16" duration="217.00" routeLength="2634.91" waitingTime="6.00" waitingCount="1" stopTime="0.00" timeLoss="21.28" rerouteNo="0" devices="vehroute_22 tripinfo_22" vType="DEFAULT_VEHTYPE" speedFactor="0.98" vaporized=""/>
    <tripinfo id="63" depart="63.00" departLane="B1B2_0" departPos="771.96" departSpeed="13.71" departDelay="0.00" arrival="241.00" arrivalLane="C2top2_0" arrivalPos="989.60" arrivalSpeed="12.91" duration="178.00" routeLength="2204.43" waitingTime="2.00" waitingCount="1" stopTime="0.00" timeLoss="15.78" rerouteNo="0" devices="vehroute_63 tripinfo_63" vType="DEFAULT_VEHTYPE" speedFactor="0.99" vaporized=""/>
    <tripinfo id="3" depart="3.00" departLane="left2A2_1" departPos="737.37" departSpeed="15.04" departDelay="0.00" arrival="242.00" arrivalLane="C2top2_1" arrivalPos="989.60" arrivalSpeed="14.82" duration="239.00" routeLength="3261.19" waitingTime="0.00" waitingCount="0" stopTime="0.00" timeLoss="21.05" rerouteNo="0" devices="vehroute_3 tripinfo_3" vType="DEFAULT_VEHTYPE" speedFactor="1.08" vaporized=""/>
    <tripinfo id="25" depart="25.00" departLane="left0A0_0" departPos="425.29" departSpeed="12.12" departDelay="0.00" arrival="252.00" arrivalLane="B0bottom1_0" arrivalPos="989.60" arrivalSpeed="11.70" duration="227.00" routeLength="2562.94" waitingTime="0.00" waitingCount="0" stopTime="0.00" timeLoss="13.93" rerouteNo="0" devices="vehroute_25 tripinfo_25" vType="DEFAULT_VEHTYPE" speedFactor="0.87" vaporized=""/>
    <tripinfo id="88" depart="88.00" departLane="right1C1_0" departPos="941.33" departSpeed="13.99" departDelay="0.00" arrival="253.00" arrivalLane="C2top2_0" arrivalPos="989.60" arrivalSpeed="13.30" duration="165.00" routeLength="2046.90" waitingTime="3.00" waitingCount="1" stopTime="0.00" timeLoss="17.87" rerouteNo="0" devices="vehroute_88 tripinfo_88" vType="DEFAULT_VEHTYPE" speedFactor="1.01" vaporized=""/>
    <tripinfo id="62" depart="62.00" departLane="bottom0A0_1" departPos="576.11" departSpeed="14.11" departDelay="0.00" arrival="257.00" arrivalLane="A1left1_0" arrivalPos="989.60" arrivalSpeed="12.93" duration="195.00" routeLength="2422.45" waitingTime="4.00" waitingCount="1" stopTime="0.00" timeLoss="22.45" rerouteNo="0" devices="vehroute_62 tripinfo_62" vType="DEFAULT_VEHTYPE" speedFactor="1.02" vaporized=""/>
    <tripinfo id="74" depart="75.00" departLane="top2C2_0" departPos="707.87" departSpeed="13.27" departDelay="1.00" arrival="262.00" arrivalLane="B2top1_0" arrivalPos="989.60" arrivalSpeed="12.59" duration="187.00" routeLength="2268.59" waitingTime="0.00" waitingCount="0" stopTime="0.00" timeLoss="13.96" rerouteNo="0" devices="vehroute_74 tripinfo_74" vType="DEFAULT_VEHTYPE" speedFactor="0.96" vaporized=""/>
    <tripinfo id="28" depart="28.00" departLane="right0C0_0" departPos="482.70" departSpeed="15.72" departDelay="0.00" arrival="264.00" arrivalLane="A0left0_0" arrivalPos="989.60" arrivalSpeed="15.25" duration="236.00" routeLength="3517.30" waitingTime="0.00" waitingCount="0" stopTime="0.00" timeLoss="11.45" rerouteNo="0" devices="vehroute_28 tripinfo_28" vType="DEFAULT_VEHTYPE" speedFactor="1.13" vaporized=""/>
    <tripinfo id="4" depart="4.00" departLane="right2C2_0" departPos="560.39" departSpeed="14.31" departDelay="0.00" arrival="268.00" arrivalLane="A2top0_0" arrivalPos="989.60" arrivalSpeed="14.11" duration="264.00" routeLength="3427.84" waitingTime="0.00" waitingCount="0" stopTime="0.00" timeLoss="23.30" rerouteNo="0" devices="vehroute_4 tripinfo_4" vType="DEFAULT_VEHTYPE" speedFactor="1.03" vaporized=""/>
    <tripinfo id="142" depart="142.00" departLane="right2C2_0" departPos="455.63" departSpeed="13.01" departDelay="0.00" arrival="269.00" arrivalLane="C2top2_0" arrivalPos="989.60" arrivalSpeed="11.88" duration="127.00" routeLength="1532.60" waitingTime="0.00" waitingCount="0" stopTime="0.00" timeLoss="7.76" rerouteNo="0" devices="vehroute_142 tripinfo_142" vType="DEFAULT_VEHTYPE" speedFactor="0.94" vaporized=""/>
    <tripinfo id="47" depart="47.00" departLane="C2C1_1" departPos="430.24" departSpeed="12.51" departDelay="0.00" arrival="272.00" arrivalLane="C0bottom2_0" arrivalPos="989.60" arrivalSpeed="11.84" duration="225.00" routeLength="2559.36" waitingTime="4.00" waitingCount="1" stopTime="0.00" timeLoss="20.25" rerouteNo="0" devices="vehroute_47 tripinfo_47" vType="DEFAULT_VEHTYPE" speedFactor="0.90" vaporized=""/>
    <tripinfo id="112" depart="112.00" departLane="left1A1_1" departPos="852.78" departSpeed="15.26" departDelay="0.00" arrival="277.00" arrivalLane="A2left2_0" arrivalPos="989.60" arrivalSpeed="14.07" duration="165.00" routeLength="2144.34" waitingTime="7.00" waitingCount="2" stopTime="0.00" timeLoss="22.85" rerouteNo="0" devices="vehroute_112 tripinfo_112" vType="DEFAULT_VEHTYPE" speedFactor="1.10" vaporized=""/>
    <tripinfo id="5" depart="5.00" departLane="top1B2_1" departPos="45.72" departSpeed="11.54" departDelay="0.00" arrival="279.00" arrivalLane="C2right2_0" arrivalPos="989.60" arrivalSpeed="10.41" duration="274.00" routeLength="2952.84" waitingTime="0.00" waitingCount="0" stopTime="0.00" timeLoss="17.25" rerouteNo="0" devices="vehroute_5 tripinfo_5" vType="DEFAULT_VEHTYPE" speedFactor="0.83" vaporized=""/>
    <tripinfo id="6" depart="6.00" departLane="C2C1_0" departPos="388.33" departSpeed="14.53" departDelay="0.00" arrival="280.00" arrivalLane="B2top1_0" arrivalPos="989.60" arrivalSpeed="13.68" duration="274.00" routeLength="3577.73" waitingTime="5.00" waitingCount="1" stopTime="0.00" timeLoss="26.08" rerouteNo="0" devices="vehroute_6 tripinfo_6" vType="DEFAULT_VEHTYPE" speedFactor="1.05" vaporized=""/>
    <tripinfo id="37" depart="37.00" departLane="bottom0A0_1" departPos="272.52" departSpeed="16.39" departDelay="0.00" arrival="285.00" arrivalLane="A2left2_0" arrivalPos="989.60" arrivalSpeed="15.35" duration="248.00" routeLength="3726.04" waitingTime="3.00" waitingCount="1" stopTime="0.00" timeLoss="19.43" rerouteNo="0" devices="vehroute_37 tripinfo_37" vType="DEFAULT_VEHTYPE" speedFactor="1.18" vaporized=""/>
    <tripinfo id="125" depart="125.00" departLane="B1B0_0" departPos="728.39" departSpeed="16.01" departDelay="0.00" arrival="287.00" arrivalLane="A0bottom0_0" arrivalPos="989.60" arrivalSpeed="15.98" duration="162.00" routeLength="2248.00" waitingTime="4.00" waitingCount="1" stopTime="0.00" timeLoss="19.86" rerouteNo="0" devices="vehroute_125 tripinfo_125" vType="DEFAULT_VEHTYPE" speedFactor="1.15" vaporized=""/>
    <tripinfo id="69" depart="70.00" departLane="bottom0A0_0" departPos="127.33" departSpeed="14.20" departDelay="1.00" arrival="287.00" arrivalLane="B0bottom1_0" arrivalPos="989.60" arrivalSpeed="13.26" duration="217.00" routeLength="2849.13" waitingTime="0.00" waitingCount="0" stopTime="0.00" timeLoss="14.17" rerouteNo="0" devices="vehroute_69 tripinfo_69" vType="DEFAULT_VEHTYPE" speedFactor="1.02" vaporized=""/>
    <tripinfo id="169" depart="169.00" departLane="left1A1_0" departPos="519.15" departSpeed="13.06" departDelay="0.00" arrival="289.00" arrivalLane="A1A0_0" arrivalPos="979.20" arrivalSpeed="12.22" duration="120.00" routeLength="1458.68" waitingTime="0.00" waitingCount="0" stopTime="0.00" timeLoss="7.07" rerouteNo="0" devices="vehroute_169 tripinfo_169" vType="DEFAULT_VEHTYPE" speedFactor="0.94" vaporized=""/>
    <tripinfo id="21" depart="21.00" departLane="right2C2_1" departPos="539.00" departSpeed="14.03" departDelay="0.00" arrival="292.00" arrivalLane="C0B0_0" arrivalPos="979.20" arrivalSpeed="13.13" duration="271.00" routeLength="3437.39" waitingTime="4.00" waitingCount="1" stopTime="0.00" timeLoss="24.80" rerouteNo="0" devices="vehroute_21 tripinfo_21" vType="DEFAULT_VEHTYPE" speedFactor="1.01" vaporized=""/>
    <tripinfo id="34" depart="34.00" departLane="C1C0_0" departPos="798.29" departSpeed="13.82" departDelay="0.00" arrival="293.00" arrivalLane="A0bottom0_0" arrivalPos="989.60" arrivalSpeed="12.78" duration="259.00" routeLength="3178.10" waitingTime="6.00" waitingCount="1" stopTime="0.00" timeLoss="27.21" rerouteNo="0" devices="vehroute_34 tripinfo_34" vType="DEFAULT_VEHTYPE" speedFactor="0.99" vaporized=""/>
    <tripinfo id="60" depart="60.00" departLane="top2C2_1" departPos="703.89" departSpeed="15.04" departDelay="0.00" arrival="294.00" arrivalLane="C0right0_0" arrivalPos="989.60" arrivalSpeed="14.85" duration="234.00" routeLength="3294.67" waitingTime="0.00" waitingCount="0" stopTime="0.00" timeLoss="14.14" rerouteNo="0" devices="vehroute_60 tripinfo_60" vType="DEFAULT_VEHTYPE" speedFactor="1.08" vaporized=""/>
    <tripinfo id="124" depart="124.00" departLane="top1B2_1" departPos="753.86" departSpeed="14.74" departDelay="0.00" arrival="296.00" arrivalLane="C2right2_0" arrivalPos="989.60" arrivalSpeed="13.47" duration="172.00" routeLength="2244.70" waitingTime="4.00" waitingCount="1" stopTime="0.00" timeLoss="18.61" rerouteNo="0" devices="vehroute_124 tripinfo_124" vType="DEFAULT_VEHTYPE" speedFactor="1.06" vaporized=""/>
    <tripinfo id="12" depart="12.00" departLane="left2A2_0" departPos="361.38" departSpeed="14.54" departDelay="0.00" arrival="299.00" arrivalLane="A0bottom0_0" arrivalPos="989.60" arrivalSpeed="13.78" duration="287.00" routeLength="3626.85" waitingTime="10.00" waitingCount="2" stopTime="0.00" timeLoss="36.20" rerouteNo="0" devices="vehroute_12 tripinfo_12" vType="DEFAULT_VEHTYPE" speedFactor="1.05" vaporized=""/>
    <tripinfo id="94" depart="94.00" departLane="bottom0A0_0" departPos="145.59" departSpeed="15.15" departDelay="0.00" arrival="300.00" arrivalLane="B0bottom1_0" arrivalPos="989.60" arrivalSpeed="14.58" duration="206.00" routeLength="2830.87" waitingTime="0.00" waitingCount="0" stopTime="0.00" timeLoss="17.49" rerouteNo="0" devices="vehroute_94 tripinfo_94" vType="DEFAULT_VEHTYPE" speedFactor="1.09" vaporized=""/>
    <tripinfo id="173" depart="173.00" departLane="bottom0A0_1" departPos="391.34" departSpeed="15.86" departDelay="0.00" arrival="300.00" arrivalLane="A0left0_0" arrivalPos="989.60" arrivalSpeed="15.78" duration="127.00" routeLength="1607.22" waitingTime="12.00" waitingCount="2" stopTime="0.00" timeLoss="24.76" rerouteNo="0" devices="vehroute_173 tripinfo_173" vType="DEFAULT_VEHTYPE" speedFactor="1.14" vaporized=""/>
    <tripinfo id="43" depart="43.00" departLane="left2A2_1" departPos="643.82" departSpeed="14.41" departDelay="0.00" arrival="300.00" arrivalLane="C2top2_0" arrivalPos="989.60" arrivalSpeed="14.17" duration="257.00" routeLength="3354.74" waitingTime="0.00" waitingCount="0" stopTime="0.00" timeLoss="23.51" rerouteNo="0" devices="vehroute_43 tripinfo_43" vType="DEFAULT_VEHTYPE" speedFactor="1.04" vaporized=""/>
    <tripinfo id="9" depart="9.00" departLane="top2C2_0" departPos="949.96" departSpeed="11.90" departDelay="0.00" arrival="300.00" arrivalLane="A2top0_0" arrivalPos="989.60" arrivalSpeed="10.78" duration="291.00" routeLength="3026.50" waitingTime="5.00" waitingCount="1" stopTime="0.00" timeLoss="34.98" rerouteNo="0" devices="vehroute_9 tripinfo_9" vType="DEFAULT_VEHTYPE" speedFactor="0.86" vaporized=""/>
    <tripinfo id="158" depart="158.00" departLane="top2C2_1" departPos="303.10" departSpeed="12.64" departDelay="0.00" arrival="302.00" arrivalLane="C2top2_0" arrivalPos="989.60" arrivalSpeed="11.45" duration="144.00" routeLength="1680.78" waitingTime="0.00" waitingCount="0" stopTime="0.00" timeLoss="10.01" rerouteNo="0" devices="vehroute_158 tripinfo_158" vType="DEFAULT_VEHTYPE" speedFactor="0.91" vaporized=""/>
    <tripinfo id="145" depart="145.00" departLane="left0A0_1" departPos="675.67" departSpeed="15.85" departDelay="0.00" arrival="303.00" arrivalLane="A1left1_0" arrivalPos="989.60" arrivalSpeed="15.23" duration="158.00" routeLength="2321.45" waitingTime="0.00" waitingCount="0" stopTime="0.00" timeLoss="10.20" rerouteNo="0" devices="vehroute_145 tripinfo_145" vType="DEFAULT_VEHTYPE" speedFactor="1.14" vaporized=""/>
    <tripinfo id="95" depart="95.00" departLane="right1C1_0" departPos="260.27" departSpeed="14.68" departDelay="0.00" arrival="305.00" arrivalLane="C2right2_0" arrivalPos="989.60" arrivalSpeed="13.97" duration="210.00" routeLength="2716.19" waitingTime="6.00" waitingCount="1" stopTime="0.00" timeLoss="23.55" rerouteNo="0" devices="vehroute_95 tripinfo_95" vType="DEFAULT_VEHTYPE" speedFactor="1.06" vaporized=""/>
    <tripinfo id="120" depart="120.00" departLane="right2C2_1" departPos="745.93" departSpeed="13.08" departDelay="0.00" arrival="306.00" arrivalLane="C1right1_0" arrivalPos="989.60" arrivalSpeed="12.01" duration="186.00" routeLength="2251.19" waitingTime="0.00" waitingCount="0" stopTime="0.00" timeLoss="12.33" rerouteNo="0" devices="vehroute_120 tripinfo_120" vType="DEFAULT_VEHTYPE" speedFactor="0.94" vaporized=""/>
    <tripinfo id="58" depart="58.00" departLane="bottom0A0_0" departPos="674.49" departSpeed="14.22" departDelay="0.00" arrival="306.00" arrivalLane="C0right0_0" arrivalPos="989.60" arrivalSpeed="13.20" duration="248.00" routeLength="3313.74" waitingTime="0.00" waitingCount="0" stopTime="0.00" timeLoss="14.08" rerouteNo="0" devices="vehroute_58 tripinfo_58" vType="DEFAULT_VEHTYPE" speedFactor="1.02" vaporized=""/>
    <tripinfo id="164" depart="164.00" departLane="top0A2_1" departPos="65.88" departSpeed="14.61" departDelay="0.00" arrival="307.00" arrivalLane="A2top0_0" arrivalPos="989.60" arrivalSpeed="14.58" duration="143.00" routeLength="1918.00" waitingTime="0.00" waitingCount="0" stopTime="0.00" timeLoss="10.20" rerouteNo="0" devices="vehroute_164 tripinfo_164" vType="DEFAULT_VEHTYPE" speedFactor="1.05" vaporized=""/>
    <tripinfo id="190" depart="190.00" departLane="C1C0_1" departPos="596.13" departSpeed="12.52" departDelay="0.00" arrival="308.00" arrivalLane="C0bottom2_0" arrivalPos="989.60" arrivalSpeed="11.67" duration="118.00" routeLength="1393.47" waitingTime="0.00" waitingCount="0" stopTime="0.00" timeLoss="6.00" rerouteNo="0" devices="vehroute_190 tripinfo_190" vType="DEFAULT_VEHTYPE" speedFactor="0.90" vaporized=""/>
    <tripinfo id="39" depart="39.00" departLane="B2A2_1" departPos="762.26" departSpeed="12.51" departDelay="0.00" arrival="314.00" arrivalLane="A0bottom0_0" arrivalPos="989.60" arrivalSpeed="11.95" duration="275.00" routeLength="3225.90" waitingTime="0.00" waitingCount="0" stopTime="0.00" timeLoss="16.02" rerouteNo="0" devices="vehroute_39 tripinfo_39" vType="DEFAULT_VEHTYPE" speedFactor="0.90" vaporized=""/>
    <tripinfo id="65" depart="65.00" departLane="top1B2_0" departPos="189.12" departSpeed="12.26" departDelay="0.00" arrival="315.00" arrivalLane="A2left2_0" arrivalPos="989.60" arrivalSpeed="11.57" duration="250.00" routeLength="2799.11" waitingTime="2.00" waitingCount="1" stopTime="0.00" timeLoss="20.51" rerouteNo="0" devices="vehroute_65 tripinfo_65" vType="DEFAULT_VEHTYPE" speedFactor="0.88" vaporized=""/>
    <tripinfo id="155" depart="155.00" departLane="left0A0_0" departPos="965.49" departSpeed="12.54" departDelay="0.00" arrival="316.00" arrivalLane="B0bottom1_0" arrivalPos="989.60" arrivalSpeed="14.52" duration="161.00" routeLength="2022.74" waitingTime="5.00" waitingCount="2" stopTime="0.00" timeLoss="29.70" rerouteNo="0" devices="vehroute_155 tripinfo_155" vType="DEFAULT_VEHTYPE" speedFactor="1.12" vaporized=""/>
    <tripinfo id="156" depart="156.00" departLane="left1A1_0" departPos="511.67" departSpeed="16.38" departDelay="0.00" arrival="317.00" arrivalLane="A0bottom0_0" arrivalPos="989.60" arrivalSpeed="15.59" duration="161.00" routeLength="2476.56" waitingTime="0.00" waitingCount="0" stopTime="0.00" timeLoss="9.09" rerouteNo="0" devices="vehroute_156 tripinfo_156" vType="DEFAULT_VEHTYPE" speedFactor="1.18" vaporized=""/>
    <tripinfo id="229" depart="229.00" departLane="left1A1_1" departPos="956.41" departSpeed="13.82" departDelay="0.00" arrival="320.00" arrivalLane="A1left1_0" arrivalPos="989.60" arrivalSpeed="12.81" duration="91.00" routeLength="1027.47" waitingTime="6.00" waitingCount="1" stopTime="0.00" timeLoss="14.93" rerouteNo="0" devices="vehroute_229 tripinfo_229" vType="DEFAULT_VEHTYPE" speedFactor="0.99" vaporized=""/>
    <tripinfo id="11" depart="11.00" departLane="C2B2_1" departPos="78.34" departSpeed="14.26" departDelay="0.00" arrival="321.00" arrivalLane="C1right1_0" arrivalPos="989.60" arrivalSpeed="13.44" duration="310.00" routeLength="3881.93" waitingTime="7.00" waitingCount="2" stopTime="0.00" timeLoss="35.01" rerouteNo="0" devices="vehroute_11 tripinfo_11" vType="DEFAULT_VEHTYPE" speedFactor="1.03" vaporized=""/>
    <tripinfo id="51" depart="51.00" departLane="B0B1_0" departPos="124.09" departSpeed="16.24" departDelay="0.00" arrival="321.00" arrivalLane="C0bottom2_0" arrivalPos="989.60" arrivalSpeed="14.94" duration="270.00" routeLength="3841.97" waitingTime="7.00" waitingCount="2" stopTime="0.00" timeLoss="32.39" rerouteNo="0" devices="vehroute_51 tripinfo_51" vType="DEFAULT_VEHTYPE" speedFactor="1.17" vaporized=""/>